   2   2   0   0
  0.6552486E+01  0.2357647E-09  0.2357647E-09  0.2357647E-09  0.5000000E-15
  1.000000000000000E-004
  CAR 
 unknown system                          
     13.37480833     -1.79331647  301      8.00426293      1.00000000
     -1.793  0.0000E+00  0.0000E+00
     -1.743  0.0000E+00  0.0000E+00
     -1.692  0.0000E+00  0.0000E+00
     -1.642  0.0000E+00  0.0000E+00
     -1.591  0.0000E+00  0.0000E+00
     -1.541  0.0000E+00  0.0000E+00
     -1.490  0.0000E+00  0.0000E+00
     -1.439  0.0000E+00  0.0000E+00
     -1.389  0.0000E+00  0.0000E+00
     -1.338  0.0000E+00  0.0000E+00
     -1.288  0.0000E+00  0.0000E+00
     -1.237  0.0000E+00  0.0000E+00
     -1.187  0.0000E+00  0.0000E+00
     -1.136  0.0000E+00  0.0000E+00
     -1.085  0.0000E+00  0.0000E+00
     -1.035  0.0000E+00  0.0000E+00
     -0.984  0.0000E+00  0.0000E+00
     -0.934  0.0000E+00  0.0000E+00
     -0.883  0.0000E+00  0.0000E+00
     -0.833  0.0000E+00  0.0000E+00
     -0.782  0.0000E+00  0.0000E+00
     -0.732  0.0000E+00  0.0000E+00
     -0.681  0.0000E+00  0.0000E+00
     -0.630  0.0000E+00  0.0000E+00
     -0.580  0.0000E+00  0.0000E+00
     -0.529  0.0000E+00  0.0000E+00
     -0.479  0.0000E+00  0.0000E+00
     -0.428  0.0000E+00  0.0000E+00
     -0.378  0.0000E+00  0.0000E+00
     -0.327  0.0000E+00  0.0000E+00
     -0.277  0.0000E+00  0.0000E+00
     -0.226  0.0000E+00  0.0000E+00
     -0.175  0.0000E+00  0.0000E+00
     -0.125  0.0000E+00  0.0000E+00
     -0.074  0.0000E+00  0.0000E+00
     -0.024  0.0000E+00  0.0000E+00
      0.027  0.0000E+00  0.0000E+00
      0.077  0.0000E+00  0.0000E+00
      0.128  0.0000E+00  0.0000E+00
      0.179  0.0000E+00  0.0000E+00
      0.229  0.2346E-02  0.1543E-03
      0.280  0.3089E-02  0.2914E-03
      0.330  0.3907E-02  0.4679E-03
      0.381  0.4799E-02  0.6877E-03
      0.431  0.5767E-02  0.9545E-03
      0.482  0.6808E-02  0.1272E-02
      0.532  0.6828E-02  0.1628E-02
      0.583  0.7308E-02  0.1986E-02
      0.634  0.7752E-02  0.2366E-02
      0.684  0.8160E-02  0.2769E-02
      0.735  0.8534E-02  0.3191E-02
      0.785  0.8871E-02  0.3631E-02
      0.836  0.9260E-02  0.4088E-02
      0.886  0.9773E-02  0.4569E-02
      0.937  0.1032E-01  0.5077E-02
      0.988  0.1089E-01  0.5613E-02
      1.038  0.1150E-01  0.6179E-02
      1.089  0.1213E-01  0.6776E-02
      1.139  0.1234E-01  0.7394E-02
      1.190  0.1272E-01  0.8028E-02
      1.240  0.1307E-01  0.8680E-02
      1.291  0.1339E-01  0.9349E-02
      1.341  0.1368E-01  0.1003E-01
      1.392  0.1413E-01  0.1073E-01
      1.443  0.1457E-01  0.1146E-01
      1.493  0.1503E-01  0.1221E-01
      1.544  0.1550E-01  0.1298E-01
      1.594  0.1600E-01  0.1378E-01
      1.645  0.1651E-01  0.1460E-01
      1.695  0.1701E-01  0.1544E-01
      1.746  0.1752E-01  0.1632E-01
      1.796  0.1803E-01  0.1722E-01
      1.847  0.1855E-01  0.1814E-01
      1.898  0.1910E-01  0.1909E-01
      1.948  0.1960E-01  0.2007E-01
      1.999  0.2018E-01  0.2108E-01
      2.049  0.2078E-01  0.2211E-01
      2.100  0.2140E-01  0.2318E-01
      2.150  0.2204E-01  0.2428E-01
      2.201  0.2267E-01  0.2541E-01
      2.252  0.2330E-01  0.2657E-01
      2.302  0.2393E-01  0.2776E-01
      2.353  0.2457E-01  0.2899E-01
      2.403  0.2520E-01  0.3025E-01
      2.454  0.2584E-01  0.3154E-01
      2.504  0.2648E-01  0.3286E-01
      2.555  0.2770E-01  0.3422E-01
      2.605  0.2870E-01  0.3565E-01
      2.656  0.2974E-01  0.3713E-01
      2.707  0.3083E-01  0.3866E-01
      2.757  0.3197E-01  0.4025E-01
      2.808  0.3313E-01  0.4189E-01
      2.858  0.3436E-01  0.4360E-01
      2.909  0.3561E-01  0.4537E-01
      2.959  0.3690E-01  0.4720E-01
      3.010  0.3862E-01  0.4910E-01
      3.060  0.4077E-01  0.5111E-01
      3.111  0.4316E-01  0.5323E-01
      3.162  0.4579E-01  0.5548E-01
      3.212  0.4866E-01  0.5786E-01
      3.263  0.5158E-01  0.6040E-01
      3.313  0.5464E-01  0.6308E-01
      3.364  0.5778E-01  0.6592E-01
      3.414  0.7105E-01  0.6931E-01
      3.465  0.1180E+00  0.7391E-01
      3.516  0.1479E+00  0.8086E-01
      3.566  0.1455E+00  0.8819E-01
      3.617  0.1602E+00  0.9591E-01
      3.667  0.1708E+00  0.1044E+00
      3.718  0.1977E+00  0.1139E+00
      3.768  0.2044E+00  0.1241E+00
      3.819  0.1827E+00  0.1350E+00
      3.869  0.1775E+00  0.1441E+00
      3.920  0.1758E+00  0.1530E+00
      3.971  0.1769E+00  0.1619E+00
      4.021  0.1764E+00  0.1708E+00
      4.072  0.1823E+00  0.1799E+00
      4.122  0.1910E+00  0.1893E+00
      4.173  0.2018E+00  0.1992E+00
      4.223  0.2195E+00  0.2098E+00
      4.274  0.2406E+00  0.2213E+00
      4.324  0.3415E+00  0.2358E+00
      4.375  0.3246E+00  0.2523E+00
      4.426  0.3469E+00  0.2697E+00
      4.476  0.3150E+00  0.2863E+00
      4.527  0.2726E+00  0.3014E+00
      4.577  0.2377E+00  0.3142E+00
      4.628  0.2140E+00  0.3256E+00
      4.678  0.1892E+00  0.3361E+00
      4.729  0.1769E+00  0.3450E+00
      4.780  0.1781E+00  0.3542E+00
      4.830  0.1713E+00  0.3635E+00
      4.881  0.1546E+00  0.3717E+00
      4.931  0.1381E+00  0.3791E+00
      4.982  0.1225E+00  0.3857E+00
      5.032  0.1120E+00  0.3916E+00
      5.083  0.9199E-01  0.3967E+00
      5.133  0.8489E-01  0.4011E+00
      5.184  0.8506E-01  0.4054E+00
      5.235  0.8475E-01  0.4097E+00
      5.285  0.8106E-01  0.4139E+00
      5.336  0.1407E+00  0.4186E+00
      5.386  0.2709E+00  0.4291E+00
      5.437  0.4339E+00  0.4477E+00
      5.487  0.4236E+00  0.4699E+00
      5.538  0.5482E+00  0.4961E+00
      5.589  0.5699E+00  0.5248E+00
      5.639  0.3945E+00  0.5502E+00
      5.690  0.3436E+00  0.5691E+00
      5.740  0.2810E+00  0.5864E+00
      5.791  0.2513E+00  0.6000E+00
      5.841  0.2306E+00  0.6123E+00
      5.892  0.2223E+00  0.6234E+00
      5.942  0.2238E+00  0.6347E+00
      5.993  0.2355E+00  0.6462E+00
      6.044  0.2456E+00  0.6581E+00
      6.094  0.2767E+00  0.6714E+00
      6.145  0.3081E+00  0.6860E+00
      6.195  0.3125E+00  0.7013E+00
      6.246  0.2650E+00  0.7184E+00
      6.296  0.2752E+00  0.7321E+00
      6.347  0.2883E+00  0.7463E+00
      6.397  0.3221E+00  0.7621E+00
      6.448  0.3426E+00  0.7790E+00
      6.499  0.3530E+00  0.7969E+00
      6.549  0.3997E+00  0.8160E+00
      6.600  0.4029E+00  0.8364E+00
      6.650  0.4163E+00  0.8577E+00
      6.701  0.4266E+00  0.8788E+00
      6.751  0.3796E+00  0.8993E+00
      6.802  0.3215E+00  0.9168E+00
      6.853  0.3018E+00  0.9325E+00
      6.903  0.2986E+00  0.9476E+00
      6.954  0.2750E+00  0.9634E+00
      7.004  0.2694E+00  0.9778E+00
      7.055  0.1423E+00  0.9870E+00
      7.105  0.1271E+00  0.9936E+00
      7.156  0.1229E+00  0.1000E+01
      7.206  0.1181E+00  0.1006E+01
      7.257  0.1142E+00  0.1012E+01
      7.308  0.1057E+00  0.1018E+01
      7.358  0.1012E+00  0.1023E+01
      7.409  0.9837E-01  0.1028E+01
      7.459  0.9759E-01  0.1033E+01
      7.510  0.9727E-01  0.1038E+01
      7.560  0.8991E-01  0.1044E+01
      7.611  0.8791E-01  0.1049E+01
      7.661  0.9461E-01  0.1054E+01
      7.712  0.9691E-01  0.1059E+01
      7.763  0.9938E-01  0.1064E+01
      7.813  0.1019E+00  0.1069E+01
      7.864  0.1045E+00  0.1074E+01
      7.914  0.1157E+00  0.1080E+01
      7.965  0.1273E+00  0.1087E+01
      8.015  0.1172E+00  0.1092E+01
      8.066  0.9594E-01  0.1098E+01
      8.117  0.9854E-01  0.1103E+01
      8.167  0.1041E+00  0.1108E+01
      8.218  0.1117E+00  0.1114E+01
      8.268  0.1215E+00  0.1120E+01
      8.319  0.1488E+00  0.1126E+01
      8.369  0.1889E+00  0.1135E+01
      8.420  0.2615E+00  0.1146E+01
      8.470  0.2982E+00  0.1161E+01
      8.521  0.2954E+00  0.1176E+01
      8.572  0.2883E+00  0.1191E+01
      8.622  0.2903E+00  0.1205E+01
      8.673  0.2947E+00  0.1220E+01
      8.723  0.3267E+00  0.1236E+01
      8.774  0.3600E+00  0.1253E+01
      8.824  0.3766E+00  0.1272E+01
      8.875  0.3805E+00  0.1291E+01
      8.925  0.4149E+00  0.1312E+01
      8.976  0.4178E+00  0.1334E+01
      9.027  0.4088E+00  0.1354E+01
      9.077  0.4040E+00  0.1375E+01
      9.128  0.4495E+00  0.1395E+01
      9.178  0.4569E+00  0.1419E+01
      9.229  0.4394E+00  0.1442E+01
      9.279  0.3334E+00  0.1462E+01
      9.330  0.3282E+00  0.1479E+01
      9.381  0.3322E+00  0.1495E+01
      9.431  0.4169E+00  0.1513E+01
      9.482  0.5368E+00  0.1531E+01
      9.532  0.6259E+00  0.1560E+01
      9.583  0.1178E+01  0.1603E+01
      9.633  0.5444E+00  0.1639E+01
      9.684  0.4274E+00  0.1662E+01
      9.734  0.3973E+00  0.1683E+01
      9.785  0.3112E+00  0.1700E+01
      9.836  0.3076E+00  0.1716E+01
      9.886  0.2926E+00  0.1731E+01
      9.937  0.2772E+00  0.1746E+01
      9.987  0.2271E+00  0.1758E+01
     10.038  0.1748E+00  0.1768E+01
     10.088  0.1509E+00  0.1777E+01
     10.139  0.1332E+00  0.1784E+01
     10.190  0.1192E+00  0.1791E+01
     10.240  0.1046E+00  0.1796E+01
     10.291  0.8983E-01  0.1801E+01
     10.341  0.7304E-01  0.1805E+01
     10.392  0.5935E-01  0.1809E+01
     10.442  0.4957E-01  0.1811E+01
     10.493  0.5283E-01  0.1814E+01
     10.543  0.3702E-01  0.1816E+01
     10.594  0.3425E-02  0.1817E+01
     10.645  0.2834E-02  0.1817E+01
     10.695  0.2455E-02  0.1818E+01
     10.746  0.2103E-02  0.1818E+01
     10.796  0.1779E-02  0.1818E+01
     10.847  0.1482E-02  0.1818E+01
     10.897  0.1211E-02  0.1818E+01
     10.948  0.9684E-03  0.1818E+01
     10.998  0.7526E-03  0.1818E+01
     11.049  0.5640E-03  0.1818E+01
     11.100  0.4025E-03  0.1818E+01
     11.150  0.2682E-03  0.1818E+01
     11.201  0.1611E-03  0.1818E+01
     11.251  0.8110E-04  0.1818E+01
     11.302  0.2830E-04  0.1818E+01
     11.352  0.2670E-05  0.1818E+01
     11.403  0.0000E+00  0.1818E+01
     11.454  0.0000E+00  0.1818E+01
     11.504  0.0000E+00  0.1818E+01
     11.555  0.0000E+00  0.1818E+01
     11.605  0.0000E+00  0.1818E+01
     11.656  0.0000E+00  0.1818E+01
     11.706  0.0000E+00  0.1818E+01
     11.757  0.0000E+00  0.1818E+01
     11.807  0.0000E+00  0.1818E+01
     11.858  0.0000E+00  0.1818E+01
     11.909  0.0000E+00  0.1818E+01
     11.959  0.0000E+00  0.1818E+01
     12.010  0.0000E+00  0.1818E+01
     12.060  0.0000E+00  0.1818E+01
     12.111  0.0000E+00  0.1818E+01
     12.161  0.0000E+00  0.1818E+01
     12.212  0.0000E+00  0.1818E+01
     12.262  0.0000E+00  0.1818E+01
     12.313  0.0000E+00  0.1818E+01
     12.364  0.0000E+00  0.1818E+01
     12.414  0.0000E+00  0.1818E+01
     12.465  0.0000E+00  0.1818E+01
     12.515  0.0000E+00  0.1818E+01
     12.566  0.0000E+00  0.1818E+01
     12.616  0.0000E+00  0.1818E+01
     12.667  0.0000E+00  0.1818E+01
     12.718  0.0000E+00  0.1818E+01
     12.768  0.0000E+00  0.1818E+01
     12.819  0.0000E+00  0.1818E+01
     12.869  0.0000E+00  0.1818E+01
     12.920  0.0000E+00  0.1818E+01
     12.970  0.0000E+00  0.1818E+01
     13.021  0.0000E+00  0.1818E+01
     13.071  0.0000E+00  0.1818E+01
     13.122  0.0000E+00  0.1818E+01
     13.173  0.0000E+00  0.1818E+01
     13.223  0.0000E+00  0.1818E+01
     13.274  0.0000E+00  0.1818E+01
     13.324  0.0000E+00  0.1818E+01
     13.375  0.0000E+00  0.1818E+01
