    2    2   11    1
  0.6552486E+01  0.2357647E-09  0.2357647E-09  0.2357647E-09  0.5000000E-15
  1.000000000000000E-004
  CAR 
 unknown system                          
     12     56     10
 
  0.4166667E-01  0.4166667E-01  0.4166667E-01  0.4629630E-02
    1        0.206684   1.000000
    2        3.534217   1.000000
    3        3.534217   1.000000
    4        7.019039   1.000000
    5        7.019039   1.000000
    6        7.150336   1.000000
    7        9.139220   0.000000
    8        9.139221   0.000000
    9       10.550574   0.000000
   10       10.550574   0.000000
 
  0.1250000E+00  0.4166667E-01  0.4166667E-01  0.1388889E-01
    1        0.516172   1.000000
    2        3.695773   1.000000
    3        3.714523   1.000000
    4        6.948645   1.000000
    5        7.001768   1.000000
    6        7.320332   1.000000
    7        8.930498   0.000000
    8        9.228899   0.000000
    9        9.854820   0.000000
   10       10.165118   0.000000
 
  0.2083333E+00  0.4166667E-01  0.4166667E-01  0.1388889E-01
    1        1.106565   1.000000
    2        4.011497   1.000000
    3        4.024040   1.000000
    4        6.919063   1.000000
    5        6.986416   1.000000
    6        7.560917   1.013541
    7        8.536918   0.000000
    8        9.240591   0.000000
    9        9.420610   0.000000
   10        9.564220   0.000000
 
  0.2916667E+00  0.4166667E-01  0.4166667E-01  0.1388889E-01
    1        1.915708   1.000000
    2        4.346024   1.000000
    3        4.467891   1.000000
    4        6.949647   1.000000
    5        6.969124   1.000000
    6        7.878374   1.010825
    7        8.015182   0.000000
    8        8.609086   0.000000
    9        8.917661   0.000000
   10        9.635829   0.000000
 
  0.3750000E+00  0.4166667E-01  0.4166667E-01  0.1388889E-01
    1        2.837031   1.000000
    2        4.499731   1.000000
    3        5.041530   1.000000
    4        6.878683   1.000000
    5        7.068132   1.000000
    6        7.555784   1.005425
    7        8.045299   0.218939
    8        8.267195  -0.025684
    9        8.318965   0.000000
   10        9.592245   0.000000
 
  0.4583333E+00  0.4166667E-01  0.4166667E-01  0.1388889E-01
    1        3.703488   1.000000
    2        4.304001   1.000000
    3        5.699493   1.000000
    4        6.375615   1.000000
    5        7.296351   1.000000
    6        7.559390   1.000000
    7        7.621478   1.147859
    8        7.866154   0.774835
    9        8.702637   0.000000
   10        9.151010   0.000000
 
  0.1250000E+00  0.1250000E+00  0.4166667E-01  0.1388889E-01
    1        0.813967   1.000000
    2        3.843659   1.000000
    3        3.897543   1.000000
    4        6.781413   1.000000
    5        6.940030   1.000000
    6        7.592437   1.000000
    7        8.933448   0.000000
    8        9.171737   0.000000
    9        9.282667   0.000000
   10        9.892549   0.000000
 
  0.2083333E+00  0.1250000E+00  0.4166667E-01  0.2777778E-01
    1        1.378219   1.000000
    2        4.107544   1.000000
    3        4.233009   1.000000
    4        6.647894   1.000000
    5        6.870066   1.000000
    6        7.936875   1.004082
    7        8.633769   0.000000
    8        8.689574   0.000000
    9        9.323743   0.000000
   10        9.346062   0.000000
 
  0.2916667E+00  0.1250000E+00  0.4166667E-01  0.2777778E-01
    1        2.141442   1.000000
    2        4.411268   1.000000
    3        4.651613   1.000000
    4        6.593017   1.000000
    5        6.790807   1.000000
    6        8.023480   0.929379
    7        8.309408   0.000000
    8        8.347712   0.000000
    9        8.775437   0.000000
   10       10.340598   0.000000
 
  0.3750000E+00  0.1250000E+00  0.4166667E-01  0.2777778E-01
    1        2.993301   1.000000
    2        4.550109   1.000000
    3        5.143034   1.000000
    4        6.559657   1.000000
    5        6.715719   1.000000
    6        7.520243   1.005606
    7        8.027214   0.116024
    8        8.332347  -0.014607
    9        8.766525   0.000000
   10        9.866920   0.000000
 
  0.4583333E+00  0.1250000E+00  0.4166667E-01  0.2777778E-01
    1        3.779790   1.000000
    2        4.338029   1.000000
    3        5.698304   1.000000
    4        6.215690   1.000000
    5        6.856009   1.000000
    6        7.140770   1.000000
    7        7.956313   0.551830
    8        8.077264   0.057247
    9        9.195155   0.000000
   10        9.614205   0.000000
 
  0.2083333E+00  0.2083333E+00  0.4166667E-01  0.1388889E-01
    1        1.881588   1.000000
    2        4.259858   1.000000
    3        4.613758   1.000000
    4        6.396195   1.000000
    5        6.757695   1.000000
    6        7.981145   0.989660
    7        8.390868   0.000000
    8        8.816058   0.000000
    9        8.899193   0.000000
   10        9.264860   0.000000
 
  0.2916667E+00  0.2083333E+00  0.4166667E-01  0.2777778E-01
    1        2.533218   1.000000
    2        4.400329   1.000000
    3        5.085783   1.000000
    4        6.237159   1.000000
    5        6.693769   1.000000
    6        7.399012   1.013796
    7        8.523839   0.000000
    8        8.686530   0.000000
    9        8.877258   0.000000
   10        9.431944   0.000000
 
  0.3750000E+00  0.2083333E+00  0.4166667E-01  0.2777778E-01
    1        3.211094   1.000000
    2        4.411566   1.000000
    3        5.567928   1.000000
    4        6.193948   1.000000
    5        6.642483   1.000000
    6        6.931540   1.001087
    7        8.365462  -0.014498
    8        8.528173   0.000000
    9        9.344076   0.000000
   10        9.757013   0.000000
 
  0.4583333E+00  0.2083333E+00  0.4166667E-01  0.2777778E-01
    1        3.792349   1.000000
    2        4.205949   1.000000
    3        5.997179   1.000000
    4        6.221822   1.000000
    5        6.518559   1.000000
    6        6.601578   1.000000
    7        8.390183  -0.038250
    8        8.455181   0.000000
    9        9.737980   0.000000
   10       10.108496   0.000000
 
  0.2916667E+00  0.2916667E+00  0.4166667E-01  0.1388889E-01
    1        2.979590   1.000000
    2        4.315811   1.000000
    3        5.652663   1.000000
    4        5.979127   1.000000
    5        6.798350   1.000000
    6        6.844680   1.000000
    7        8.406091   0.000000
    8        8.923627   0.000000
    9        9.368120   0.000000
   10        9.416383   0.000000
 
  0.3750000E+00  0.2916667E+00  0.4166667E-01  0.2777778E-01
    1        3.366991   1.000000
    2        4.150473   1.000000
    3        5.852496   1.000000
    4        6.211815   1.000000
    5        6.416173   1.000000
    6        7.020521   1.000000
    7        8.493878   0.000000
    8        8.924820   0.000000
    9        9.547817   0.000000
   10        9.940811   0.000000
 
  0.4583333E+00  0.2916667E+00  0.4166667E-01  0.2777778E-01
    1        3.673901   1.000000
    2        3.928538   1.000000
    3        5.871851   1.000000
    4        6.043839   1.000000
    5        6.758072   1.000000
    6        7.059106   1.000000
    7        8.704111   0.000000
    8        8.874111   0.000000
    9       10.010668   0.000000
   10       10.484876   0.000000
 
  0.3750000E+00  0.3750000E+00  0.4166667E-01  0.1388889E-01
    1        3.448956   1.000000
    2        3.880180   1.000000
    3        5.641885   1.000000
    4        5.970028   1.000000
    5        6.969619   1.019290
    6        7.689056   0.972312
    7        8.712615   0.000000
    8        9.124603   0.000000
    9        9.465319   0.000000
   10       10.429406   0.000000
 
  0.4583333E+00  0.3750000E+00  0.4166667E-01  0.2777778E-01
    1        3.526067   1.000000
    2        3.664609   1.000000
    3        5.582454   1.000000
    4        5.694299   1.000000
    5        7.620153   0.976370
    6        7.990238   0.730226
    7        8.965026   0.000000
    8        9.131361   0.000000
    9        9.834474   0.000000
   10       10.577021   0.000000
 
  0.4583333E+00  0.4583333E+00  0.4166667E-01  0.1388889E-01
    1        3.452632   1.000000
    2        3.496761   1.000000
    3        5.450212   1.000000
    4        5.487625   1.000000
    5        8.484721   0.106852
    6        8.874283  -0.159423
    7        9.149203   0.000000
    8        9.245969   0.000000
    9        9.524661   0.000000
   10       10.147683   0.000000
 
  0.1250000E+00  0.1250000E+00  0.1250000E+00  0.4629630E-02
    1        1.103942   1.000000
    2        4.033642   1.000000
    3        4.033642   1.000000
    4        6.722902   1.000000
    5        6.722902   1.000000
    6        7.907225   1.000000
    7        8.632377   0.000000
    8        9.043464   0.000000
    9       10.224522   0.000000
   10       10.224522   0.000000
 
  0.2083333E+00  0.1250000E+00  0.1250000E+00  0.1388889E-01
    1        1.649949   1.000000
    2        4.296591   1.000000
    3        4.351557   1.000000
    4        6.543828   1.000000
    5        6.623723   1.000000
    6        7.967066   0.997793
    7        8.318250   0.000000
    8        8.811617   0.000000
    9        9.245387   0.000000
   10       10.339242   0.000000
 
  0.2916667E+00  0.1250000E+00  0.1250000E+00  0.1388889E-01
    1        2.379510   1.000000
    2        4.652276   1.000000
    3        4.665885   1.000000
    4        6.477761   1.000000
    5        6.480535   1.000000
    6        7.415571   1.012416
    7        8.514730   0.000000
    8        8.773717   0.000000
    9        9.059404   0.000000
   10        9.505300   0.000000
 
  0.3750000E+00  0.1250000E+00  0.1250000E+00  0.1388889E-01
    1        3.178962   1.000000
    2        4.729828   1.000000
    3        5.105161   1.000000
    4        6.282393   1.000000
    5        6.563342   1.000000
    6        7.089904   1.000190
    7        8.242457  -0.014795
    8        8.556278  -0.006411
    9        9.213855   0.000000
   10        9.856689   0.000000
 
  0.4583333E+00  0.1250000E+00  0.1250000E+00  0.1388889E-01
    1        3.909350   1.000000
    2        4.457273   1.000000
    3        5.569901   1.000000
    4        5.983468   1.000000
    5        6.749352   1.000000
    6        6.927791   1.000000
    7        8.126310   0.025760
    8        8.235045  -0.012638
    9        9.516934   0.000000
   10        9.770992   0.000000
 
  0.2083333E+00  0.2083333E+00  0.1250000E+00  0.1388889E-01
    1        2.151397   1.000000
    2        4.481440   1.000000
    3        4.697447   1.000000
    4        6.314548   1.000000
    5        6.467904   1.000000
    6        7.314894   1.003414
    7        8.807988   0.000000
    8        8.928065   0.000000
    9        9.218453   0.000000
   10        9.411797   0.000000
 
  0.2916667E+00  0.2083333E+00  0.1250000E+00  0.2777778E-01
    1        2.793819   1.000000
    2        4.647483   1.000000
    3        5.103216   1.000000
    4        6.147672   1.000000
    5        6.377929   1.000000
    6        6.833585   1.000133
    7        8.789820   0.000000
    8        8.978782   0.000000
    9        9.323130   0.000000
   10        9.430071   0.000000
 
  0.3750000E+00  0.2083333E+00  0.1250000E+00  0.2777778E-01
    1        3.447560   1.000000
    2        4.659381   1.000000
    3        5.431495   1.000000
    4        6.028556   1.000000
    5        6.406201   1.000000
    6        6.632501   1.000021
    7        8.608475  -0.002013
    8        8.659656   0.000000
    9        9.555564   0.000000
   10       10.018777   0.000000
 
  0.4583333E+00  0.2083333E+00  0.1250000E+00  0.2777778E-01
    1        3.999894   1.000000
    2        4.419051   1.000000
    3        5.684466   1.000000
    4        5.886333   1.000000
    5        6.531221   1.000000
    6        6.608370   1.000000
    7        8.506596  -0.008214
    8        8.516332   0.000000
    9        9.729065   0.000000
   10        9.941136   0.000000
 
  0.2916667E+00  0.2916667E+00  0.1250000E+00  0.1388889E-01
    1        3.258878   1.000000
    2        4.563276   1.000000
    3        5.650469   1.000000
    4        5.904001   1.000000
    5        6.385468   1.000000
    6        6.417731   1.000000
    7        8.799893   0.000000
    8        8.985938   0.000000
    9        9.362192   0.000000
   10       10.382267   0.000000
 
  0.3750000E+00  0.2916667E+00  0.1250000E+00  0.2777778E-01
    1        3.642312   1.000000
    2        4.386747   1.000000
    3        5.769749   1.000000
    4        5.947139   1.000000
    5        6.334413   1.000000
    6        6.640069   1.000000
    7        8.733540   0.000000
    8        8.955334   0.000000
    9        9.514196   0.000000
   10       10.299049   0.000000
 
  0.4583333E+00  0.2916667E+00  0.1250000E+00  0.2777778E-01
    1        3.923400   1.000000
    2        4.161056   1.000000
    3        5.746037   1.000000
    4        5.813501   1.000000
    5        6.691690   1.000000
    6        6.815737   1.000000
    7        8.800878   0.000000
    8        8.890324   0.000000
    9        9.760098   0.000000
   10       10.051438   0.000000
 
  0.3750000E+00  0.3750000E+00  0.1250000E+00  0.1388889E-01
    1        3.723687   1.000000
    2        4.111558   1.000000
    3        5.582214   1.000000
    4        5.807473   1.000000
    5        6.831636   1.008865
    6        7.177140   1.012555
    7        8.869490   0.000000
    8        9.141407   0.000000
    9        9.467545   0.000000
   10       10.273259   0.000000
 
  0.4583333E+00  0.3750000E+00  0.1250000E+00  0.2777778E-01
    1        3.782788   1.000000
    2        3.904219   1.000000
    3        5.524202   1.000000
    4        5.607943   1.000000
    5        7.373876   1.015163
    6        7.546904   1.001919
    7        9.040341   0.000000
    8        9.142820   0.000000
    9        9.647466   0.000000
   10       10.018314   0.000000
 
  0.4583333E+00  0.4583333E+00  0.1250000E+00  0.1388889E-01
    1        3.704758   1.000000
    2        3.742354   1.000000
    3        5.409291   1.000000
    4        5.440116   1.000000
    5        8.039375   0.712725
    6        8.168491   0.471043
    7        9.192030   0.000000
    8        9.237710   0.000000
    9        9.537590   0.000000
   10        9.757039   0.000000
 
  0.2083333E+00  0.2083333E+00  0.2083333E+00  0.4629630E-02
    1        2.643778   1.000000
    2        4.850775   1.000000
    3        4.850775   1.000000
    4        6.172662   1.000000
    5        6.172662   1.000000
    6        6.668643   1.000000
    7        9.105327   0.000000
    8        9.105327   0.000000
    9        9.780018   0.000000
   10        9.780018   0.000000
 
  0.2916667E+00  0.2083333E+00  0.2083333E+00  0.1388889E-01
    1        3.254193   1.000000
    2        5.054292   1.000000
    3        5.148160   1.000000
    4        6.001728   1.000000
    5        6.032233   1.000000
    6        6.249196   1.000000
    7        8.968002   0.000000
    8        9.282615   0.000000
    9        9.344033   0.000000
   10        9.984224   0.000000
 
  0.3750000E+00  0.2083333E+00  0.2083333E+00  0.1388889E-01
    1        3.827590   1.000000
    2        5.002871   1.000000
    3        5.278901   1.000000
    4        5.827066   1.000000
    5        6.126167   1.000000
    6        6.330039   1.000000
    7        8.822353   0.000000
    8        8.934753   0.000000
    9        9.544556   0.000000
   10        9.957059   0.000000
 
  0.4583333E+00  0.2083333E+00  0.2083333E+00  0.1388889E-01
    1        4.272107   1.000000
    2        4.647779   1.000000
    3        5.482815   1.000000
    4        5.665547   1.000000
    5        6.370179   1.000000
    6        6.477817   1.000000
    7        8.731251   0.000000
    8        8.746028   0.000000
    9        9.704429   0.000000
   10        9.837692   0.000000
 
  0.2916667E+00  0.2916667E+00  0.2083333E+00  0.1388889E-01
    1        3.768022   1.000000
    2        5.007302   1.000000
    3        5.640537   1.000000
    4        5.776665   1.000000
    5        5.851886   1.000000
    6        5.958320   1.000000
    7        9.120889   0.000000
    8        9.212860   0.000000
    9        9.884494   0.000000
   10       10.632038   0.000000
 
  0.3750000E+00  0.2916667E+00  0.2083333E+00  0.2777778E-01
    1        4.137100   1.000000
    2        4.782486   1.000000
    3        5.621295   1.000000
    4        5.647346   1.000000
    5        6.137042   1.000000
    6        6.202450   1.000000
    7        9.046049   0.000000
    8        9.080201   0.000000
    9        9.493219   0.000000
   10        9.880808   0.000000
 
  0.4583333E+00  0.2916667E+00  0.2083333E+00  0.2777778E-01
    1        4.345593   1.000000
    2        4.537818   1.000000
    3        5.571972   1.000000
    4        5.579815   1.000000
    5        6.432815   1.000000
    6        6.493339   1.000000
    7        8.993361   0.000000
    8        9.011306   0.000000
    9        9.645971   0.000000
   10        9.786418   0.000000
 
  0.3750000E+00  0.3750000E+00  0.2083333E+00  0.1388889E-01
    1        4.230745   1.000000
    2        4.505462   1.000000
    3        5.495502   1.000000
    4        5.618613   1.000000
    5        6.527151   1.000054
    6        6.570476   1.001223
    7        9.110524   0.000000
    8        9.226690   0.000000
    9        9.479393   0.000000
   10        9.848879   0.000000
 
  0.4583333E+00  0.3750000E+00  0.2083333E+00  0.2777778E-01
    1        4.244976   1.000000
    2        4.321577   1.000000
    3        5.443705   1.000000
    4        5.497100   1.000000
    5        6.920559   1.001605
    6        6.936151   1.007587
    7        9.181794   0.000000
    8        9.228147   0.000000
    9        9.581407   0.000000
   10        9.732293   0.000000
 
  0.4583333E+00  0.4583333E+00  0.2083333E+00  0.1388889E-01
    1        4.165837   1.000000
    2        4.186262   1.000000
    3        5.355558   1.000000
    4        5.380106   1.000000
    5        7.367018   1.020826
    6        7.372513   1.023565
    7        9.296462   0.000000
    8        9.319120   0.000000
    9        9.555414   0.000000
   10        9.629550   0.000000
 
  0.2916667E+00  0.2916667E+00  0.2916667E+00  0.4629630E-02
    1        4.360850   1.000000
    2        5.316173   1.000000
    3        5.608678   1.000000
    4        5.608678   1.000000
    5        5.646887   1.000000
    6        5.646887   1.000000
    7        9.309017   0.000000
    8        9.498704   0.000000
    9        9.498704   0.000000
   10       11.374808   0.000000
 
  0.3750000E+00  0.2916667E+00  0.2916667E+00  0.1388889E-01
    1        4.684201   1.000000
    2        4.988285   1.000000
    3        5.545914   1.000000
    4        5.557538   1.000000
    5        5.760284   1.000000
    6        6.075631   1.000000
    7        9.254304   0.000000
    8        9.279336   0.000000
    9        9.474968   0.000000
   10        9.648075   0.000000
 
  0.4583333E+00  0.2916667E+00  0.2916667E+00  0.1388889E-01
    1        4.713645   1.000000
    2        4.782965   1.000000
    3        5.502721   1.000000
    4        5.517836   1.000000
    5        6.159550   1.000000
    6        6.313637   1.000000
    7        9.202126   0.000000
    8        9.206628   0.000000
    9        9.597312   0.000000
   10        9.663177   0.000000
 
  0.3750000E+00  0.3750000E+00  0.2916667E+00  0.1388889E-01
    1        4.845434   1.000000
    2        4.882554   1.000000
    3        5.425213   1.000000
    4        5.616103   1.000000
    5        5.947356   1.000000
    6        6.236942   1.000000
    7        9.352695   0.000000
    8        9.367729   0.000000
    9        9.490687   0.000000
   10        9.619172   0.000000
 
  0.4583333E+00  0.3750000E+00  0.2916667E+00  0.2777778E-01
    1        4.754167   1.000000
    2        4.786890   1.000000
    3        5.409955   1.000000
    4        5.489791   1.000000
    5        6.345048   1.000000
    6        6.457359   1.000000
    7        9.352465   0.000000
    8        9.365824   0.000000
    9        9.569917   0.000000
   10        9.617522   0.000000
 
  0.4583333E+00  0.4583333E+00  0.2916667E+00  0.1388889E-01
    1        4.713641   1.000000
    2        4.738562   1.000000
    3        5.324616   1.000000
    4        5.369814   1.000000
    5        6.670257   1.000000
    6        6.709086   1.000000
    7        9.429722   0.000000
    8        9.437759   0.000000
    9        9.569893   0.000000
   10        9.591446   0.000000
 
  0.3750000E+00  0.3750000E+00  0.3750000E+00  0.4629630E-02
    1        4.922537   1.000000
    2        5.406554   1.000000
    3        5.406554   1.000000
    4        5.605080   1.000000
    5        5.904425   1.000000
    6        5.904425   1.000000
    7        9.486821   0.000000
    8        9.486821   0.000000
    9        9.508635   0.000000
   10        9.508635   0.000000
 
  0.4583333E+00  0.3750000E+00  0.3750000E+00  0.1388889E-01
    1        4.974665   1.000000
    2        5.144837   1.000000
    3        5.469958   1.000000
    4        5.635393   1.000000
    5        6.009194   1.000000
    6        6.122106   1.000000
    7        9.475810   0.000000
    8        9.477680   0.000000
    9        9.566484   0.000000
   10        9.577937   0.000000
 
  0.4583333E+00  0.4583333E+00  0.3750000E+00  0.1388889E-01
    1        5.106897   1.000000
    2        5.263703   1.000000
    3        5.354953   1.000000
    4        5.515474   1.000000
    5        6.120684   1.000000
    6        6.159374   1.000000
    7        9.528064   0.000000
    8        9.530316   0.000000
    9        9.579955   0.000000
   10        9.584462   0.000000
 
  0.4583333E+00  0.4583333E+00  0.4583333E+00  0.4629630E-02
    1        5.318717   1.000000
    2        5.480422   1.000000
    3        5.480422   1.000000
    4        5.748576   1.000000
    5        5.748576   1.000000
    6        5.826528   1.000000
    7        9.584570   0.000000
    8        9.584571   0.000000
    9        9.587141   0.000000
   10        9.587141   0.000000
