       N       E                     dE             d eps       ncg     rms          rms(c)
DAV:   1     0.545021823031E+02    0.54502E+02   -0.36816E+03  1144   0.107E+03
DAV:   2    -0.898139746816E+01   -0.63484E+02   -0.59267E+02  1154   0.245E+02
DAV:   3    -0.118523404618E+02   -0.28709E+01   -0.27516E+01  1404   0.659E+01
DAV:   4    -0.119269206134E+02   -0.74580E-01   -0.71346E-01  1352   0.948E+00
DAV:   5    -0.119277019052E+02   -0.78129E-03   -0.75983E-03  1366   0.909E-01    0.411E+01
DAV:   6    -0.109756160018E+02    0.95209E+00   -0.53237E-01  1308   0.149E+01    0.202E+01
DAV:   7    -0.105620076544E+02    0.41361E+00   -0.32979E-01  1402   0.986E+00    0.188E+00
DAV:   8    -0.105458501979E+02    0.16157E-01   -0.29863E-02  1132   0.357E+00    0.307E-01
DAV:   9    -0.105461972316E+02   -0.34703E-03   -0.29324E-04  1630   0.243E-01    0.150E-01
DAV:  10    -0.105457695872E+02    0.42764E-03   -0.51626E-05  1244   0.974E-02    0.464E-03
DAV:  11    -0.105457719273E+02   -0.23400E-05   -0.99604E-07  1242   0.113E-02    0.224E-03
DAV:  12    -0.105457709952E+02    0.93212E-06   -0.70550E-08  1300   0.229E-03    0.114E-04
DAV:  13    -0.105457706861E+02    0.30903E-06   -0.17549E-09   616   0.595E-04    0.822E-05
DAV:  14    -0.105457706434E+02    0.42705E-07   -0.42480E-10   590   0.241E-04    0.946E-05
DAV:  15    -0.105457706077E+02    0.35699E-07   -0.17079E-10   580   0.232E-04    0.391E-05
DAV:  16    -0.105457706202E+02   -0.12506E-07   -0.42201E-11   578   0.103E-04    0.239E-06
DAV:  17    -0.105457706182E+02    0.20668E-08   -0.16134E-11   582   0.542E-05
   1 F= -.10545771E+02 E0= -.10545771E+02  d E =-.105458E+02
       N       E                     dE             d eps       ncg     rms          rms(c)
DAV:   1     0.474217219634E+02    0.57967E+02   -0.10851E+03  1138   0.127E+02    0.662E+01
DAV:   2     0.581044714506E+02    0.10683E+02   -0.12199E+02  1952   0.379E+01    0.310E+01
DAV:   3     0.691975395159E+02    0.11093E+02   -0.50675E+01  1914   0.243E+01    0.159E+01
DAV:   4     0.695885620135E+02    0.39102E+00   -0.10398E+01  1728   0.122E+01    0.188E+00
DAV:   5     0.694993968186E+02   -0.89165E-01   -0.38416E-01  1796   0.124E+00    0.201E+00
DAV:   6     0.693600747219E+02   -0.13932E+00   -0.35210E-01  1754   0.259E+00    0.282E+00
DAV:   7     0.693882323524E+02    0.28158E-01   -0.13299E+00  1290   0.574E+00    0.562E+00
DAV:   8     0.696780970325E+02    0.28986E+00   -0.38828E-01  1456   0.299E+00    0.413E+00
DAV:   9     0.698592334480E+02    0.18114E+00   -0.31025E-01  1868   0.246E+00    0.260E+00
DAV:  10     0.699024604111E+02    0.43227E-01   -0.42004E-02  1942   0.949E-01    0.201E+00
DAV:  11     0.699581364205E+02    0.55676E-01   -0.23088E-01  1744   0.220E+00    0.669E-01
DAV:  12     0.699609361761E+02    0.27998E-02   -0.35576E-02  1986   0.844E-01    0.117E-01
DAV:  13     0.699607248235E+02   -0.21135E-03   -0.82754E-04  1798   0.136E-01    0.329E-02
DAV:  14     0.699606844743E+02   -0.40349E-04   -0.85411E-05  1968   0.339E-02    0.189E-02
DAV:  15     0.699606705826E+02   -0.13892E-04   -0.38607E-06  1718   0.663E-03    0.768E-03
DAV:  16     0.699606852528E+02    0.14670E-04   -0.96138E-06  1758   0.143E-02    0.128E-03
DAV:  17     0.699606844488E+02   -0.80400E-06   -0.16096E-07  1764   0.155E-03    0.470E-04
DAV:  18     0.699606841629E+02   -0.28592E-06   -0.78878E-09  1048   0.352E-04    0.670E-04
DAV:  19     0.699606846353E+02    0.47240E-06   -0.12362E-08   824   0.587E-04    0.253E-04
DAV:  20     0.699606849363E+02    0.30109E-06   -0.66286E-09   758   0.353E-04    0.351E-05
DAV:  21     0.699606849723E+02    0.35990E-07   -0.15913E-09   676   0.188E-04    0.264E-05
DAV:  22     0.699606849732E+02    0.89733E-09   -0.72510E-10   668   0.101E-04
   2 F= 0.69960685E+02 E0= 0.69960685E+02  d E =0.805065E+02
       N       E                     dE             d eps       ncg     rms          rms(c)
DAV:   1    -0.437738120931E+02   -0.11373E+03   -0.11141E+03  1152   0.291E+02    0.482E+01
DAV:   2    -0.251372619723E+02    0.18637E+02   -0.52986E+01  1554   0.878E+01    0.440E+01
DAV:   3    -0.189621542168E+02    0.61751E+01   -0.10617E+01  1440   0.394E+01    0.212E+01
DAV:   4    -0.184031660968E+02    0.55899E+00   -0.20526E+00  1182   0.237E+01    0.252E+00
DAV:   5    -0.183985530548E+02    0.46130E-02   -0.48847E-01  1538   0.566E+00    0.586E-01
DAV:   6    -0.184076434197E+02   -0.90904E-02   -0.88947E-03  1292   0.774E-01    0.273E-01
DAV:   7    -0.184528921845E+02   -0.45249E-01   -0.52689E-03  1474   0.987E-01    0.269E-02
DAV:   8    -0.184645608537E+02   -0.11669E-01   -0.11605E-01  1268   0.265E-01    0.163E-02
DAV:   9    -0.184647752594E+02   -0.21441E-03   -0.21450E-03  1526   0.376E-02    0.194E-02
DAV:  10    -0.184647496808E+02    0.25579E-04   -0.62150E-05  1478   0.383E-02    0.457E-03
DAV:  11    -0.184647532448E+02   -0.35640E-05   -0.20798E-06  1242   0.120E-02    0.258E-03
DAV:  12    -0.184647528362E+02    0.40859E-06   -0.50568E-08   662   0.923E-04    0.128E-03
DAV:  13    -0.184647515321E+02    0.13041E-05   -0.46107E-08  1106   0.341E-03    0.662E-04
DAV:  14    -0.184647512702E+02    0.26191E-06   -0.33690E-09   600   0.102E-03    0.416E-04
DAV:  15    -0.184647509177E+02    0.35245E-06   -0.62528E-09   582   0.126E-03    0.858E-05
DAV:  16    -0.184647508517E+02    0.66083E-07   -0.15525E-09   574   0.345E-04    0.238E-05
DAV:  17    -0.184647508421E+02    0.95918E-08   -0.25650E-10   568   0.215E-04
   3 F= -.18464751E+02 E0= -.18464751E+02  d E =-.791898E+01
       N       E                     dE             d eps       ncg     rms          rms(c)
DAV:   1    -0.189173808174E+02   -0.45263E+00   -0.70095E+00  1120   0.465E+01    0.401E+00
DAV:   2    -0.187938623552E+02    0.12352E+00   -0.40677E-01  1218   0.996E+00    0.872E-01
DAV:   3    -0.187817354307E+02    0.12127E-01   -0.97505E-03  1374   0.880E-01    0.335E-01
DAV:   4    -0.187780261305E+02    0.37093E-02   -0.33681E-03  1144   0.779E-01    0.800E-02
DAV:   5    -0.187779645035E+02    0.61627E-04   -0.27023E-04  1386   0.225E-01    0.264E-02
DAV:   6    -0.187779997692E+02   -0.35266E-04   -0.57006E-05  1222   0.117E-01    0.737E-04
DAV:   7    -0.187780017124E+02   -0.19432E-05   -0.39664E-07  1350   0.540E-03    0.382E-04
DAV:   8    -0.187780017493E+02   -0.36861E-07   -0.25053E-08   848   0.218E-03    0.107E-04
DAV:   9    -0.187780019325E+02   -0.18325E-06   -0.18033E-09   586   0.580E-04    0.231E-05
DAV:  10    -0.187780018987E+02    0.33806E-07   -0.37708E-10   588   0.252E-04    0.378E-05
DAV:  11    -0.187780018972E+02    0.15450E-08   -0.10237E-10   582   0.105E-04
   4 F= -.18778002E+02 E0= -.18778002E+02  d E =-.823223E+01
       N       E                     dE             d eps       ncg     rms          rms(c)
DAV:   1    -0.189681117169E+02   -0.19011E+00   -0.48734E+00  1120   0.368E+01    0.301E+00
DAV:   2    -0.188742580503E+02    0.93854E-01   -0.35239E-01  1228   0.869E+00    0.525E-01
DAV:   3    -0.188664814011E+02    0.77766E-02   -0.52160E-03  1270   0.559E-01    0.237E-01
DAV:   4    -0.188641304670E+02    0.23509E-02   -0.21367E-03  1156   0.560E-01    0.576E-02
DAV:   5    -0.188641351356E+02   -0.46686E-05   -0.13235E-04  1466   0.134E-01    0.167E-02
DAV:   6    -0.188641428918E+02   -0.77562E-05   -0.31131E-05  1262   0.813E-02    0.117E-03
DAV:   7    -0.188641423778E+02    0.51402E-06   -0.43376E-07  1314   0.841E-03    0.310E-04
DAV:   8    -0.188641422355E+02    0.14230E-06   -0.11584E-08   750   0.121E-03    0.120E-04
DAV:   9    -0.188641423205E+02   -0.85003E-07   -0.26735E-09   566   0.737E-04    0.353E-05
DAV:  10    -0.188641423090E+02    0.11470E-07   -0.43873E-10   566   0.267E-04    0.264E-05
DAV:  11    -0.188641423056E+02    0.33895E-08   -0.10654E-10   572   0.923E-05
   5 F= -.18864142E+02 E0= -.18864142E+02  d E =-.831837E+01
       N       E                     dE             d eps       ncg     rms          rms(c)
DAV:   1    -0.188653467248E+02   -0.12044E-02   -0.37325E-02  1120   0.315E+00    0.260E-01
DAV:   2    -0.188647702462E+02    0.57648E-03   -0.28055E-03  1226   0.772E-01    0.401E-02
DAV:   3    -0.188646949580E+02    0.75288E-04   -0.42646E-05  1278   0.514E-02    0.169E-02
DAV:   4    -0.188646626220E+02    0.32336E-04   -0.14396E-05  1152   0.462E-02    0.524E-03
DAV:   5    -0.188646609348E+02    0.16872E-05   -0.91951E-07  1430   0.894E-03    0.132E-03
DAV:   6    -0.188646620527E+02   -0.11180E-05   -0.20580E-07  1222   0.657E-03    0.146E-04
DAV:   7    -0.188646619425E+02    0.11018E-06   -0.40824E-09   566   0.975E-04    0.309E-05
DAV:   8    -0.188646619471E+02   -0.45342E-08   -0.29576E-10   562   0.208E-04
   6 F= -.18864662E+02 E0= -.18864662E+02  d E =-.831889E+01
       N       E                     dE             d eps       ncg     rms          rms(c)
DAV:   1    -0.188646658175E+02   -0.38750E-05   -0.39365E-05  1124   0.102E-01    0.844E-03
DAV:   2    -0.188646611934E+02    0.46242E-05   -0.29858E-06  1230   0.252E-02    0.129E-03
DAV:   3    -0.188646604891E+02    0.70430E-06   -0.73665E-08  1062   0.181E-03    0.529E-04
DAV:   4    -0.188646600716E+02    0.41745E-06   -0.15157E-08   586   0.167E-03    0.240E-04
DAV:   5    -0.188646599372E+02    0.13443E-06   -0.56418E-09   574   0.936E-04    0.123E-04
DAV:   6    -0.188646599990E+02   -0.61784E-07   -0.16792E-09   572   0.677E-04    0.280E-05
DAV:   7    -0.188646600156E+02   -0.16646E-07   -0.22096E-10   572   0.116E-04    0.139E-05
DAV:   8    -0.188646600245E+02   -0.89253E-08   -0.52963E-11   570   0.906E-05
   7 F= -.18864660E+02 E0= -.18864660E+02  d E =-.831889E+01
