<?xml version="1.0" encoding="ISO-8859-1"?>
<modeling>
 <generator>
  <i name="program" type="string">vasp </i>
  <i name="version" type="string">5.4.4.18Apr17-6-g9f103f2a35  </i>
  <i name="subversion" type="string">(build Jan 03 2019 12:41:38) complex            parallel </i>
  <i name="platform" type="string">LinuxIFC </i>
  <i name="date" type="string">2019 06 27 </i>
  <i name="time" type="string">19:38:20 </i>
 </generator>
 <incar>
  <i type="string" name="PREC">accurate</i>
  <i type="logical" name="ADDGRID"> T  </i>
  <i type="int" name="IBRION">     2</i>
  <i name="EDIFF">      0.00000001</i>
  <i type="int" name="NSW">    11</i>
  <i type="int" name="ISIF">     7</i>
  <i name="ENCUT">    300.00000000</i>
  <i type="logical" name="LREAL"> F  </i>
  <i type="int" name="ISMEAR">    -5</i>
  <i type="logical" name="LWAVE"> F  </i>
  <i type="logical" name="LCHARG"> F  </i>
  <v type="int" name="KPOINT_BSE">    -1     0     0     0</v>
 </incar>
 <structure name="primitive_cell" >
  <crystal>
   <varray name="basis" >
    <v>       1.17882328       1.17882328       1.17882328 </v>
    <v>       1.17882328      -1.17882328      -1.17882328 </v>
    <v>      -1.17882328       1.17882328      -1.17882328 </v>
   </varray>
   <i name="volume">      6.55248600 </i>
   <varray name="rec_basis" >
    <v>       0.42415179       0.42415179       0.00000000 </v>
    <v>       0.42415179       0.00000000      -0.42415179 </v>
    <v>       0.00000000       0.42415179      -0.42415179 </v>
   </varray>
  </crystal>
  <varray name="positions" >
   <v>       0.00000000       0.00000000       0.00000000 </v>
  </varray>
 </structure>
 <varray name="primitive_index" >
  <v type="int" >        1 </v>
 </varray>
 <kpoints>
  <generation param="Monkhorst-Pack">
   <v type="int" name="divisions">      12       12       12 </v>
   <v name="usershift">      0.00000000       0.00000000       0.00000000 </v>
   <v name="genvec1">      0.08333333       0.00000000       0.00000000 </v>
   <v name="genvec2">      0.00000000       0.08333333       0.00000000 </v>
   <v name="genvec3">      0.00000000       0.00000000       0.08333333 </v>
   <v name="shift">      0.50000000       0.50000000       0.50000000 </v>
  </generation>
  <varray name="kpointlist" >
   <v>       0.04166667       0.04166667       0.04166667 </v>
   <v>       0.12500000       0.04166667       0.04166667 </v>
   <v>       0.20833333       0.04166667       0.04166667 </v>
   <v>       0.29166667       0.04166667       0.04166667 </v>
   <v>       0.37500000       0.04166667       0.04166667 </v>
   <v>       0.45833333       0.04166667       0.04166667 </v>
   <v>       0.12500000       0.12500000       0.04166667 </v>
   <v>       0.20833333       0.12500000       0.04166667 </v>
   <v>       0.29166667       0.12500000       0.04166667 </v>
   <v>       0.37500000       0.12500000       0.04166667 </v>
   <v>       0.45833333       0.12500000       0.04166667 </v>
   <v>       0.20833333       0.20833333       0.04166667 </v>
   <v>       0.29166667       0.20833333       0.04166667 </v>
   <v>       0.37500000       0.20833333       0.04166667 </v>
   <v>       0.45833333       0.20833333       0.04166667 </v>
   <v>       0.29166667       0.29166667       0.04166667 </v>
   <v>       0.37500000       0.29166667       0.04166667 </v>
   <v>       0.45833333       0.29166667       0.04166667 </v>
   <v>       0.37500000       0.37500000       0.04166667 </v>
   <v>       0.45833333       0.37500000       0.04166667 </v>
   <v>       0.45833333       0.45833333       0.04166667 </v>
   <v>       0.12500000       0.12500000       0.12500000 </v>
   <v>       0.20833333       0.12500000       0.12500000 </v>
   <v>       0.29166667       0.12500000       0.12500000 </v>
   <v>       0.37500000       0.12500000       0.12500000 </v>
   <v>       0.45833333       0.12500000       0.12500000 </v>
   <v>       0.20833333       0.20833333       0.12500000 </v>
   <v>       0.29166667       0.20833333       0.12500000 </v>
   <v>       0.37500000       0.20833333       0.12500000 </v>
   <v>       0.45833333       0.20833333       0.12500000 </v>
   <v>       0.29166667       0.29166667       0.12500000 </v>
   <v>       0.37500000       0.29166667       0.12500000 </v>
   <v>       0.45833333       0.29166667       0.12500000 </v>
   <v>       0.37500000       0.37500000       0.12500000 </v>
   <v>       0.45833333       0.37500000       0.12500000 </v>
   <v>       0.45833333       0.45833333       0.12500000 </v>
   <v>       0.20833333       0.20833333       0.20833333 </v>
   <v>       0.29166667       0.20833333       0.20833333 </v>
   <v>       0.37500000       0.20833333       0.20833333 </v>
   <v>       0.45833333       0.20833333       0.20833333 </v>
   <v>       0.29166667       0.29166667       0.20833333 </v>
   <v>       0.37500000       0.29166667       0.20833333 </v>
   <v>       0.45833333       0.29166667       0.20833333 </v>
   <v>       0.37500000       0.37500000       0.20833333 </v>
   <v>       0.45833333       0.37500000       0.20833333 </v>
   <v>       0.45833333       0.45833333       0.20833333 </v>
   <v>       0.29166667       0.29166667       0.29166667 </v>
   <v>       0.37500000       0.29166667       0.29166667 </v>
   <v>       0.45833333       0.29166667       0.29166667 </v>
   <v>       0.37500000       0.37500000       0.29166667 </v>
   <v>       0.45833333       0.37500000       0.29166667 </v>
   <v>       0.45833333       0.45833333       0.29166667 </v>
   <v>       0.37500000       0.37500000       0.37500000 </v>
   <v>       0.45833333       0.37500000       0.37500000 </v>
   <v>       0.45833333       0.45833333       0.37500000 </v>
   <v>       0.45833333       0.45833333       0.45833333 </v>
  </varray>
  <varray name="weights" >
   <v>       0.00462963 </v>
   <v>       0.01388889 </v>
   <v>       0.01388889 </v>
   <v>       0.01388889 </v>
   <v>       0.01388889 </v>
   <v>       0.01388889 </v>
   <v>       0.01388889 </v>
   <v>       0.02777778 </v>
   <v>       0.02777778 </v>
   <v>       0.02777778 </v>
   <v>       0.02777778 </v>
   <v>       0.01388889 </v>
   <v>       0.02777778 </v>
   <v>       0.02777778 </v>
   <v>       0.02777778 </v>
   <v>       0.01388889 </v>
   <v>       0.02777778 </v>
   <v>       0.02777778 </v>
   <v>       0.01388889 </v>
   <v>       0.02777778 </v>
   <v>       0.01388889 </v>
   <v>       0.00462963 </v>
   <v>       0.01388889 </v>
   <v>       0.01388889 </v>
   <v>       0.01388889 </v>
   <v>       0.01388889 </v>
   <v>       0.01388889 </v>
   <v>       0.02777778 </v>
   <v>       0.02777778 </v>
   <v>       0.02777778 </v>
   <v>       0.01388889 </v>
   <v>       0.02777778 </v>
   <v>       0.02777778 </v>
   <v>       0.01388889 </v>
   <v>       0.02777778 </v>
   <v>       0.01388889 </v>
   <v>       0.00462963 </v>
   <v>       0.01388889 </v>
   <v>       0.01388889 </v>
   <v>       0.01388889 </v>
   <v>       0.01388889 </v>
   <v>       0.02777778 </v>
   <v>       0.02777778 </v>
   <v>       0.01388889 </v>
   <v>       0.02777778 </v>
   <v>       0.01388889 </v>
   <v>       0.00462963 </v>
   <v>       0.01388889 </v>
   <v>       0.01388889 </v>
   <v>       0.01388889 </v>
   <v>       0.02777778 </v>
   <v>       0.01388889 </v>
   <v>       0.00462963 </v>
   <v>       0.01388889 </v>
   <v>       0.01388889 </v>
   <v>       0.00462963 </v>
  </varray>
  <varray name="tetrahedronlist"  type="int" >
   <v type="int" >       24        1        2        2        7 </v>
   <v type="int" >       18        2        2        7        7 </v>
   <v type="int" >       12        2        7        7       22 </v>
   <v type="int" >       12        2        3        7        8 </v>
   <v type="int" >       24        2        7        7        8 </v>
   <v type="int" >       12        7        7        8       22 </v>
   <v type="int" >       24        3        7        8        8 </v>
   <v type="int" >       24        7        8        8       23 </v>
   <v type="int" >       24        7        8       22       23 </v>
   <v type="int" >       12        3        4        8        9 </v>
   <v type="int" >       24        3        8        8        9 </v>
   <v type="int" >       12        8        8        9       23 </v>
   <v type="int" >       24        4        8        9        9 </v>
   <v type="int" >       12        8        9        9       24 </v>
   <v type="int" >       12        8        9       23       24 </v>
   <v type="int" >       12        4        5        9       10 </v>
   <v type="int" >       24        4        9        9       10 </v>
   <v type="int" >       12        9        9       10       24 </v>
   <v type="int" >       24        5        9       10       10 </v>
   <v type="int" >       12        9       10       10       25 </v>
   <v type="int" >       12        9       10       24       25 </v>
   <v type="int" >       12        5        6       10       11 </v>
   <v type="int" >       24        5       10       10       11 </v>
   <v type="int" >       12       10       10       11       25 </v>
   <v type="int" >       24        6       10       11       11 </v>
   <v type="int" >       12       10       11       11       26 </v>
   <v type="int" >       12       10       11       25       26 </v>
   <v type="int" >       30        6        6       11       11 </v>
   <v type="int" >       36        6       11       11       11 </v>
   <v type="int" >       12       11       11       11       26 </v>
   <v type="int" >        6       11       11       26       26 </v>
   <v type="int" >       18        1        1        2        2 </v>
   <v type="int" >       24        1        2        2        2 </v>
   <v type="int" >       12        2        2        2        7 </v>
   <v type="int" >       12        7        8       12       22 </v>
   <v type="int" >       12        8       12       22       23 </v>
   <v type="int" >       12       12       22       23       27 </v>
   <v type="int" >       12        8        9       13       23 </v>
   <v type="int" >       12        8       12       13       23 </v>
   <v type="int" >       12       12       13       23       27 </v>
   <v type="int" >       12        9       13       23       24 </v>
   <v type="int" >       12       13       23       24       28 </v>
   <v type="int" >       12       13       23       27       28 </v>
   <v type="int" >       12        9       10       14       24 </v>
   <v type="int" >       12        9       13       14       24 </v>
   <v type="int" >       12       13       14       24       28 </v>
   <v type="int" >       12       10       14       24       25 </v>
   <v type="int" >       12       14       24       25       29 </v>
   <v type="int" >       12       14       24       28       29 </v>
   <v type="int" >       12       10       11       15       25 </v>
   <v type="int" >       12       10       14       15       25 </v>
   <v type="int" >       12       14       15       25       29 </v>
   <v type="int" >       12       11       15       25       26 </v>
   <v type="int" >       12       15       25       26       30 </v>
   <v type="int" >       12       15       25       29       30 </v>
   <v type="int" >       12       11       11       15       26 </v>
   <v type="int" >       12       11       15       15       26 </v>
   <v type="int" >       12       15       15       26       30 </v>
   <v type="int" >       12       11       15       26       26 </v>
   <v type="int" >       12       15       26       26       30 </v>
   <v type="int" >       12       15       26       30       30 </v>
   <v type="int" >       12       10       11       14       26 </v>
   <v type="int" >       12       11       14       15       26 </v>
   <v type="int" >       12       14       15       26       30 </v>
   <v type="int" >       12       10       14       25       26 </v>
   <v type="int" >       12       14       25       26       29 </v>
   <v type="int" >       12       14       26       29       30 </v>
   <v type="int" >       12        9       10       13       25 </v>
   <v type="int" >       12       10       13       14       25 </v>
   <v type="int" >       12       13       14       25       29 </v>
   <v type="int" >       12        9       13       24       25 </v>
   <v type="int" >       12       13       24       25       28 </v>
   <v type="int" >       12       13       25       28       29 </v>
   <v type="int" >       12        8        9       12       24 </v>
   <v type="int" >       12        9       12       13       24 </v>
   <v type="int" >       12       12       13       24       28 </v>
   <v type="int" >       12        8       12       23       24 </v>
   <v type="int" >       12       12       23       24       27 </v>
   <v type="int" >       12       12       24       27       28 </v>
   <v type="int" >       12        8        8       12       23 </v>
   <v type="int" >       12        8       12       23       27 </v>
   <v type="int" >       12        8       22       23       23 </v>
   <v type="int" >       12        8       23       23       27 </v>
   <v type="int" >       12        2        3        7       22 </v>
   <v type="int" >       12        3        7        8       22 </v>
   <v type="int" >       12        3        8       22       23 </v>
   <v type="int" >       12        2        2        3        7 </v>
   <v type="int" >       12        2        3        3        7 </v>
   <v type="int" >       12        3        3        7        8 </v>
   <v type="int" >       12        2        3        7        7 </v>
   <v type="int" >       12        3        7        7        8 </v>
   <v type="int" >       12       12       13       16       27 </v>
   <v type="int" >       12       13       16       27       28 </v>
   <v type="int" >       12       16       27       28       31 </v>
   <v type="int" >       12       13       14       17       28 </v>
   <v type="int" >       12       13       16       17       28 </v>
   <v type="int" >       12       16       17       28       31 </v>
   <v type="int" >       12       14       17       28       29 </v>
   <v type="int" >       12       17       28       29       32 </v>
   <v type="int" >       12       17       28       31       32 </v>
   <v type="int" >       12       14       15       18       29 </v>
   <v type="int" >       12       14       17       18       29 </v>
   <v type="int" >       12       17       18       29       32 </v>
   <v type="int" >       12       15       18       29       30 </v>
   <v type="int" >       12       18       29       30       33 </v>
   <v type="int" >       12       18       29       32       33 </v>
   <v type="int" >       12       15       15       18       30 </v>
   <v type="int" >       12       15       18       18       30 </v>
   <v type="int" >       12       18       18       30       33 </v>
   <v type="int" >       12       15       18       30       30 </v>
   <v type="int" >       12       18       30       30       33 </v>
   <v type="int" >       12       18       30       33       33 </v>
   <v type="int" >       12       14       15       17       30 </v>
   <v type="int" >       12       15       17       18       30 </v>
   <v type="int" >       12       17       18       30       33 </v>
   <v type="int" >       12       14       17       29       30 </v>
   <v type="int" >       12       17       29       30       32 </v>
   <v type="int" >       12       17       30       32       33 </v>
   <v type="int" >       12       13       14       16       29 </v>
   <v type="int" >       12       14       16       17       29 </v>
   <v type="int" >       12       16       17       29       32 </v>
   <v type="int" >       12       13       16       28       29 </v>
   <v type="int" >       12       16       28       29       31 </v>
   <v type="int" >       12       16       29       31       32 </v>
   <v type="int" >       12       12       13       13       28 </v>
   <v type="int" >       12       13       13       16       28 </v>
   <v type="int" >       12       13       16       28       31 </v>
   <v type="int" >       12       12       13       27       28 </v>
   <v type="int" >       12       13       27       28       28 </v>
   <v type="int" >       12       13       28       28       31 </v>
   <v type="int" >       12        8        9       12       27 </v>
   <v type="int" >       12        9       12       13       27 </v>
   <v type="int" >       12        9       13       27       28 </v>
   <v type="int" >       12        8        9       23       27 </v>
   <v type="int" >       12        9       23       24       27 </v>
   <v type="int" >       12        9       24       27       28 </v>
   <v type="int" >       12        3        4        8       23 </v>
   <v type="int" >       12        4        8        9       23 </v>
   <v type="int" >       12        4        9       23       24 </v>
   <v type="int" >       12        3        3        4        8 </v>
   <v type="int" >       12        3        4        4        8 </v>
   <v type="int" >       12        4        4        8        9 </v>
   <v type="int" >       12        3        4        8        8 </v>
   <v type="int" >       12        4        8        8        9 </v>
   <v type="int" >       12       16       17       19       31 </v>
   <v type="int" >       12       17       19       31       32 </v>
   <v type="int" >       12       19       31       32       34 </v>
   <v type="int" >       12       17       18       20       32 </v>
   <v type="int" >       12       17       19       20       32 </v>
   <v type="int" >       12       19       20       32       34 </v>
   <v type="int" >       12       18       20       32       33 </v>
   <v type="int" >       12       20       32       33       35 </v>
   <v type="int" >       12       20       32       34       35 </v>
   <v type="int" >       12       18       18       20       33 </v>
   <v type="int" >       12       18       20       20       33 </v>
   <v type="int" >       12       20       20       33       35 </v>
   <v type="int" >       12       18       20       33       33 </v>
   <v type="int" >       12       20       33       33       35 </v>
   <v type="int" >       12       20       33       35       35 </v>
   <v type="int" >       12       17       18       19       33 </v>
   <v type="int" >       12       18       19       20       33 </v>
   <v type="int" >       12       19       20       33       35 </v>
   <v type="int" >       12       17       19       32       33 </v>
   <v type="int" >       12       19       32       33       34 </v>
   <v type="int" >       12       19       33       34       35 </v>
   <v type="int" >       12       16       17       17       32 </v>
   <v type="int" >       12       17       17       19       32 </v>
   <v type="int" >       12       17       19       32       34 </v>
   <v type="int" >       12       16       17       31       32 </v>
   <v type="int" >       12       17       31       32       32 </v>
   <v type="int" >       12       17       32       32       34 </v>
   <v type="int" >       12       13       14       16       31 </v>
   <v type="int" >       12       14       16       17       31 </v>
   <v type="int" >       12       14       17       31       32 </v>
   <v type="int" >       12       13       14       28       31 </v>
   <v type="int" >       12       14       28       29       31 </v>
   <v type="int" >       12       14       29       31       32 </v>
   <v type="int" >       12        9       10       13       28 </v>
   <v type="int" >       12       10       13       14       28 </v>
   <v type="int" >       12       10       14       28       29 </v>
   <v type="int" >       12        9       10       24       28 </v>
   <v type="int" >       12       10       24       25       28 </v>
   <v type="int" >       12       10       25       28       29 </v>
   <v type="int" >       12        4        5        9       24 </v>
   <v type="int" >       12        5        9       10       24 </v>
   <v type="int" >       12        5       10       24       25 </v>
   <v type="int" >       12        4        4        5        9 </v>
   <v type="int" >       12        4        5        5        9 </v>
   <v type="int" >       12        5        5        9       10 </v>
   <v type="int" >       12        4        5        9        9 </v>
   <v type="int" >       12        5        9        9       10 </v>
   <v type="int" >       12       19       20       21       34 </v>
   <v type="int" >       12       20       21       34       35 </v>
   <v type="int" >       12       21       34       35       36 </v>
   <v type="int" >       24       20       20       21       35 </v>
   <v type="int" >       12       20       21       21       35 </v>
   <v type="int" >       12       21       21       35       36 </v>
   <v type="int" >       12       20       21       35       35 </v>
   <v type="int" >       12       21       35       35       36 </v>
   <v type="int" >       12       21       35       36       36 </v>
   <v type="int" >       12       19       20       20       35 </v>
   <v type="int" >       12       20       21       35       36 </v>
   <v type="int" >       12       19       20       34       35 </v>
   <v type="int" >       12       20       34       35       35 </v>
   <v type="int" >       24       20       35       35       36 </v>
   <v type="int" >       12       17       18       19       34 </v>
   <v type="int" >       12       18       19       20       34 </v>
   <v type="int" >       12       18       20       34       35 </v>
   <v type="int" >       12       17       18       32       34 </v>
   <v type="int" >       12       18       32       33       34 </v>
   <v type="int" >       12       18       33       34       35 </v>
   <v type="int" >       12       14       15       17       32 </v>
   <v type="int" >       12       15       17       18       32 </v>
   <v type="int" >       12       15       18       32       33 </v>
   <v type="int" >       12       14       15       29       32 </v>
   <v type="int" >       12       15       29       30       32 </v>
   <v type="int" >       12       15       30       32       33 </v>
   <v type="int" >       12       10       11       14       29 </v>
   <v type="int" >       12       11       14       15       29 </v>
   <v type="int" >       12       11       15       29       30 </v>
   <v type="int" >       12       10       11       25       29 </v>
   <v type="int" >       12       11       25       26       29 </v>
   <v type="int" >       12       11       26       29       30 </v>
   <v type="int" >       12        5        6       10       25 </v>
   <v type="int" >       12        6       10       11       25 </v>
   <v type="int" >       12        6       11       25       26 </v>
   <v type="int" >       12        5        5        6       10 </v>
   <v type="int" >       12        5        6        6       10 </v>
   <v type="int" >       12        6        6       10       11 </v>
   <v type="int" >       12        5        6       10       10 </v>
   <v type="int" >       12        6       10       10       11 </v>
   <v type="int" >       12       21       21       21       36 </v>
   <v type="int" >       12       21       21       36       36 </v>
   <v type="int" >       12       21       36       36       36 </v>
   <v type="int" >       12       20       20       21       36 </v>
   <v type="int" >       12       20       21       21       36 </v>
   <v type="int" >       12       20       21       36       36 </v>
   <v type="int" >       12       20       20       35       36 </v>
   <v type="int" >       12       20       35       36       36 </v>
   <v type="int" >       12       18       18       20       35 </v>
   <v type="int" >       12       18       20       20       35 </v>
   <v type="int" >       12       18       20       35       35 </v>
   <v type="int" >       12       18       18       33       35 </v>
   <v type="int" >       12       18       33       33       35 </v>
   <v type="int" >       12       18       33       35       35 </v>
   <v type="int" >       12       15       15       18       33 </v>
   <v type="int" >       12       15       18       18       33 </v>
   <v type="int" >       12       15       18       33       33 </v>
   <v type="int" >       12       15       15       30       33 </v>
   <v type="int" >       12       15       30       30       33 </v>
   <v type="int" >       12       15       30       33       33 </v>
   <v type="int" >       12       11       11       15       30 </v>
   <v type="int" >       12       11       15       15       30 </v>
   <v type="int" >       12       11       15       30       30 </v>
   <v type="int" >       12       11       11       26       30 </v>
   <v type="int" >       12       11       26       26       30 </v>
   <v type="int" >       12       11       26       30       30 </v>
   <v type="int" >       12        6        6       11       26 </v>
   <v type="int" >       12        6       11       11       26 </v>
   <v type="int" >       12        6       11       26       26 </v>
   <v type="int" >       24        6        6        6       11 </v>
   <v type="int" >       12       19       20       21       36 </v>
   <v type="int" >       12       19       20       35       36 </v>
   <v type="int" >       12       19       34       35       36 </v>
   <v type="int" >       12       17       18       20       35 </v>
   <v type="int" >       12       17       19       20       35 </v>
   <v type="int" >       12       17       19       34       35 </v>
   <v type="int" >       12       17       18       33       35 </v>
   <v type="int" >       12       17       32       33       35 </v>
   <v type="int" >       12       17       32       34       35 </v>
   <v type="int" >       12       14       15       18       33 </v>
   <v type="int" >       12       14       17       18       33 </v>
   <v type="int" >       12       14       17       32       33 </v>
   <v type="int" >       12       14       15       30       33 </v>
   <v type="int" >       12       14       29       30       33 </v>
   <v type="int" >       12       14       29       32       33 </v>
   <v type="int" >       12       10       11       15       30 </v>
   <v type="int" >       12       10       14       15       30 </v>
   <v type="int" >       12       10       14       29       30 </v>
   <v type="int" >       12       10       11       26       30 </v>
   <v type="int" >       12       10       25       26       30 </v>
   <v type="int" >       12       10       25       29       30 </v>
   <v type="int" >       12        5        6       11       26 </v>
   <v type="int" >       12        5       10       11       26 </v>
   <v type="int" >       12        5       10       25       26 </v>
   <v type="int" >       12        5        6        6       11 </v>
   <v type="int" >       12        5        5        6       11 </v>
   <v type="int" >       12        5        5       10       11 </v>
   <v type="int" >       12        5        6       11       11 </v>
   <v type="int" >       12        5       10       11       11 </v>
   <v type="int" >       12       16       17       19       34 </v>
   <v type="int" >       12       16       17       32       34 </v>
   <v type="int" >       12       16       31       32       34 </v>
   <v type="int" >       12       13       14       17       32 </v>
   <v type="int" >       12       13       16       17       32 </v>
   <v type="int" >       12       13       16       31       32 </v>
   <v type="int" >       12       13       14       29       32 </v>
   <v type="int" >       12       13       28       29       32 </v>
   <v type="int" >       12       13       28       31       32 </v>
   <v type="int" >       12        9       10       14       29 </v>
   <v type="int" >       12        9       13       14       29 </v>
   <v type="int" >       12        9       13       28       29 </v>
   <v type="int" >       12        9       10       25       29 </v>
   <v type="int" >       12        9       24       25       29 </v>
   <v type="int" >       12        9       24       28       29 </v>
   <v type="int" >       12        4        5       10       25 </v>
   <v type="int" >       12        4        9       10       25 </v>
   <v type="int" >       12        4        9       24       25 </v>
   <v type="int" >       12        4        5        5       10 </v>
   <v type="int" >       12        4        4        5       10 </v>
   <v type="int" >       12        4        4        9       10 </v>
   <v type="int" >       12        4        5       10       10 </v>
   <v type="int" >       12        4        9       10       10 </v>
   <v type="int" >       12       12       13       16       31 </v>
   <v type="int" >       12       12       13       28       31 </v>
   <v type="int" >       12       12       27       28       31 </v>
   <v type="int" >       12        8        9       13       28 </v>
   <v type="int" >       12        8       12       13       28 </v>
   <v type="int" >       12        8       12       27       28 </v>
   <v type="int" >       12        8        9       24       28 </v>
   <v type="int" >       12        8       23       24       28 </v>
   <v type="int" >       12        8       23       27       28 </v>
   <v type="int" >       12        3        4        9       24 </v>
   <v type="int" >       12        3        8        9       24 </v>
   <v type="int" >       12        3        8       23       24 </v>
   <v type="int" >       12        3        4        4        9 </v>
   <v type="int" >       12        3        3        4        9 </v>
   <v type="int" >       12        3        3        8        9 </v>
   <v type="int" >       12        3        4        9        9 </v>
   <v type="int" >       12        3        8        9        9 </v>
   <v type="int" >       12        7        8       12       27 </v>
   <v type="int" >       12        7        8       23       27 </v>
   <v type="int" >       12        7       22       23       27 </v>
   <v type="int" >       12        2        3        8       23 </v>
   <v type="int" >       12        2        7        8       23 </v>
   <v type="int" >       12        2        7       22       23 </v>
   <v type="int" >       12        2        3        3        8 </v>
   <v type="int" >       12        2        2        3        8 </v>
   <v type="int" >       12        2        2        7        8 </v>
   <v type="int" >       12        2        3        8        8 </v>
   <v type="int" >       12        2        7        8        8 </v>
   <v type="int" >       12        1        2        7       22 </v>
   <v type="int" >       12        1        1        2        7 </v>
   <v type="int" >       12        1        2        7        7 </v>
   <v type="int" >       12        1        1        1        2 </v>
   <v type="int" >       12       22       23       23       27 </v>
   <v type="int" >       12       23       23       27       27 </v>
   <v type="int" >       12       23       27       27       37 </v>
   <v type="int" >       12       23       24       27       28 </v>
   <v type="int" >       12       23       27       27       28 </v>
   <v type="int" >       12       27       27       28       37 </v>
   <v type="int" >       12       24       27       28       28 </v>
   <v type="int" >       24       27       28       28       38 </v>
   <v type="int" >       24       27       28       37       38 </v>
   <v type="int" >       12       24       25       28       29 </v>
   <v type="int" >       12       24       28       28       29 </v>
   <v type="int" >       12       28       28       29       38 </v>
   <v type="int" >       12       25       28       29       29 </v>
   <v type="int" >       12       28       29       29       39 </v>
   <v type="int" >       12       28       29       38       39 </v>
   <v type="int" >       12       25       26       29       30 </v>
   <v type="int" >       12       25       29       29       30 </v>
   <v type="int" >       12       29       29       30       39 </v>
   <v type="int" >       12       26       29       30       30 </v>
   <v type="int" >       12       29       30       30       40 </v>
   <v type="int" >       12       29       30       39       40 </v>
   <v type="int" >        6       26       26       30       30 </v>
   <v type="int" >       12       26       30       30       30 </v>
   <v type="int" >       12       30       30       30       40 </v>
   <v type="int" >        6       30       30       40       40 </v>
   <v type="int" >        6        7        7        8        8 </v>
   <v type="int" >       12        7        8        8        8 </v>
   <v type="int" >       12        8        8        8       12 </v>
   <v type="int" >        6        8        8       12       12 </v>
   <v type="int" >       12       27       28       31       37 </v>
   <v type="int" >       12       28       31       37       38 </v>
   <v type="int" >       12       31       37       38       41 </v>
   <v type="int" >       12       28       29       32       38 </v>
   <v type="int" >       12       28       31       32       38 </v>
   <v type="int" >       12       31       32       38       41 </v>
   <v type="int" >       12       29       32       38       39 </v>
   <v type="int" >       12       32       38       39       42 </v>
   <v type="int" >       12       32       38       41       42 </v>
   <v type="int" >       12       29       30       33       39 </v>
   <v type="int" >       12       29       32       33       39 </v>
   <v type="int" >       12       32       33       39       42 </v>
   <v type="int" >       12       30       33       39       40 </v>
   <v type="int" >       12       33       39       40       43 </v>
   <v type="int" >       12       33       39       42       43 </v>
   <v type="int" >       12       30       30       33       40 </v>
   <v type="int" >       12       30       33       33       40 </v>
   <v type="int" >       12       33       33       40       43 </v>
   <v type="int" >       12       30       33       40       40 </v>
   <v type="int" >       12       33       40       40       43 </v>
   <v type="int" >       12       33       40       43       43 </v>
   <v type="int" >       12       29       30       32       40 </v>
   <v type="int" >       12       30       32       33       40 </v>
   <v type="int" >       12       32       33       40       43 </v>
   <v type="int" >       12       29       32       39       40 </v>
   <v type="int" >       12       32       39       40       42 </v>
   <v type="int" >       12       32       40       42       43 </v>
   <v type="int" >       12       28       29       31       39 </v>
   <v type="int" >       12       29       31       32       39 </v>
   <v type="int" >       12       31       32       39       42 </v>
   <v type="int" >       12       28       31       38       39 </v>
   <v type="int" >       12       31       38       39       41 </v>
   <v type="int" >       12       31       39       41       42 </v>
   <v type="int" >       12       28       28       31       38 </v>
   <v type="int" >       12       28       31       38       41 </v>
   <v type="int" >       12       28       37       38       38 </v>
   <v type="int" >       12       28       38       38       41 </v>
   <v type="int" >       12       23       24       27       37 </v>
   <v type="int" >       12       24       27       28       37 </v>
   <v type="int" >       12       24       28       37       38 </v>
   <v type="int" >       12        8        8        9       12 </v>
   <v type="int" >       12        8        9        9       12 </v>
   <v type="int" >       12        9        9       12       13 </v>
   <v type="int" >       12        8        9       12       12 </v>
   <v type="int" >       12        9       12       12       13 </v>
   <v type="int" >       12        9       12       13       13 </v>
   <v type="int" >       12       31       32       34       41 </v>
   <v type="int" >       12       32       34       41       42 </v>
   <v type="int" >       12       34       41       42       44 </v>
   <v type="int" >       12       32       33       35       42 </v>
   <v type="int" >       12       32       34       35       42 </v>
   <v type="int" >       12       34       35       42       44 </v>
   <v type="int" >       12       33       35       42       43 </v>
   <v type="int" >       12       35       42       43       45 </v>
   <v type="int" >       12       35       42       44       45 </v>
   <v type="int" >       12       33       33       35       43 </v>
   <v type="int" >       12       33       35       35       43 </v>
   <v type="int" >       12       35       35       43       45 </v>
   <v type="int" >       12       33       35       43       43 </v>
   <v type="int" >       12       35       43       43       45 </v>
   <v type="int" >       12       35       43       45       45 </v>
   <v type="int" >       12       32       33       34       43 </v>
   <v type="int" >       12       33       34       35       43 </v>
   <v type="int" >       12       34       35       43       45 </v>
   <v type="int" >       12       32       34       42       43 </v>
   <v type="int" >       12       34       42       43       44 </v>
   <v type="int" >       12       34       43       44       45 </v>
   <v type="int" >       12       31       32       32       42 </v>
   <v type="int" >       12       32       32       34       42 </v>
   <v type="int" >       12       32       34       42       44 </v>
   <v type="int" >       12       31       32       41       42 </v>
   <v type="int" >       12       32       41       42       42 </v>
   <v type="int" >       12       32       42       42       44 </v>
   <v type="int" >       12       28       29       31       41 </v>
   <v type="int" >       12       29       31       32       41 </v>
   <v type="int" >       12       29       32       41       42 </v>
   <v type="int" >       12       28       29       38       41 </v>
   <v type="int" >       12       29       38       39       41 </v>
   <v type="int" >       12       29       39       41       42 </v>
   <v type="int" >       12       24       25       28       38 </v>
   <v type="int" >       12       25       28       29       38 </v>
   <v type="int" >       12       25       29       38       39 </v>
   <v type="int" >       12        9        9       10       13 </v>
   <v type="int" >       12        9       10       10       13 </v>
   <v type="int" >       12       10       10       13       14 </v>
   <v type="int" >       12        9       10       13       13 </v>
   <v type="int" >       12       10       13       13       14 </v>
   <v type="int" >       12       10       13       14       14 </v>
   <v type="int" >       12       34       35       36       44 </v>
   <v type="int" >       12       35       36       44       45 </v>
   <v type="int" >       12       36       44       45       46 </v>
   <v type="int" >       24       35       35       36       45 </v>
   <v type="int" >       12       35       36       36       45 </v>
   <v type="int" >       12       36       36       45       46 </v>
   <v type="int" >       12       35       36       45       45 </v>
   <v type="int" >       12       36       45       45       46 </v>
   <v type="int" >       12       36       45       46       46 </v>
   <v type="int" >       12       34       35       35       45 </v>
   <v type="int" >       12       35       36       45       46 </v>
   <v type="int" >       12       34       35       44       45 </v>
   <v type="int" >       12       35       44       45       45 </v>
   <v type="int" >       24       35       45       45       46 </v>
   <v type="int" >       12       32       33       34       44 </v>
   <v type="int" >       12       33       34       35       44 </v>
   <v type="int" >       12       33       35       44       45 </v>
   <v type="int" >       12       32       33       42       44 </v>
   <v type="int" >       12       33       42       43       44 </v>
   <v type="int" >       12       33       43       44       45 </v>
   <v type="int" >       12       29       30       32       42 </v>
   <v type="int" >       12       30       32       33       42 </v>
   <v type="int" >       12       30       33       42       43 </v>
   <v type="int" >       12       29       30       39       42 </v>
   <v type="int" >       12       30       39       40       42 </v>
   <v type="int" >       12       30       40       42       43 </v>
   <v type="int" >       12       25       26       29       39 </v>
   <v type="int" >       12       26       29       30       39 </v>
   <v type="int" >       12       26       30       39       40 </v>
   <v type="int" >       12       10       10       11       14 </v>
   <v type="int" >       12       10       11       11       14 </v>
   <v type="int" >       12       11       11       14       15 </v>
   <v type="int" >       12       10       11       14       14 </v>
   <v type="int" >       12       11       14       14       15 </v>
   <v type="int" >       12       11       14       15       15 </v>
   <v type="int" >       12       36       36       36       46 </v>
   <v type="int" >       12       36       36       46       46 </v>
   <v type="int" >       12       36       46       46       46 </v>
   <v type="int" >       12       35       35       36       46 </v>
   <v type="int" >       12       35       36       36       46 </v>
   <v type="int" >       12       35       36       46       46 </v>
   <v type="int" >       12       35       35       45       46 </v>
   <v type="int" >       12       35       45       46       46 </v>
   <v type="int" >       12       33       33       35       45 </v>
   <v type="int" >       12       33       35       35       45 </v>
   <v type="int" >       12       33       35       45       45 </v>
   <v type="int" >       12       33       33       43       45 </v>
   <v type="int" >       12       33       43       43       45 </v>
   <v type="int" >       12       33       43       45       45 </v>
   <v type="int" >       12       30       30       33       43 </v>
   <v type="int" >       12       30       33       33       43 </v>
   <v type="int" >       12       30       33       43       43 </v>
   <v type="int" >       12       30       30       40       43 </v>
   <v type="int" >       12       30       40       40       43 </v>
   <v type="int" >       12       30       40       43       43 </v>
   <v type="int" >       12       26       26       30       40 </v>
   <v type="int" >       12       26       30       30       40 </v>
   <v type="int" >       12       26       30       40       40 </v>
   <v type="int" >       24       11       11       11       15 </v>
   <v type="int" >       24       11       11       15       15 </v>
   <v type="int" >       24       11       15       15       15 </v>
   <v type="int" >       12       34       35       36       46 </v>
   <v type="int" >       12       34       35       45       46 </v>
   <v type="int" >       12       34       44       45       46 </v>
   <v type="int" >       12       32       33       35       45 </v>
   <v type="int" >       12       32       34       35       45 </v>
   <v type="int" >       12       32       34       44       45 </v>
   <v type="int" >       12       32       33       43       45 </v>
   <v type="int" >       12       32       42       43       45 </v>
   <v type="int" >       12       32       42       44       45 </v>
   <v type="int" >       12       29       30       33       43 </v>
   <v type="int" >       12       29       32       33       43 </v>
   <v type="int" >       12       29       32       42       43 </v>
   <v type="int" >       12       29       30       40       43 </v>
   <v type="int" >       12       29       39       40       43 </v>
   <v type="int" >       12       29       39       42       43 </v>
   <v type="int" >       12       25       26       30       40 </v>
   <v type="int" >       12       25       29       30       40 </v>
   <v type="int" >       12       25       29       39       40 </v>
   <v type="int" >       12       10       11       11       15 </v>
   <v type="int" >       12       10       10       11       15 </v>
   <v type="int" >       12       10       10       14       15 </v>
   <v type="int" >       12       10       11       15       15 </v>
   <v type="int" >       12       10       14       15       15 </v>
   <v type="int" >       12       10       14       14       15 </v>
   <v type="int" >       12       31       32       34       44 </v>
   <v type="int" >       12       31       32       42       44 </v>
   <v type="int" >       12       31       41       42       44 </v>
   <v type="int" >       12       28       29       32       42 </v>
   <v type="int" >       12       28       31       32       42 </v>
   <v type="int" >       12       28       31       41       42 </v>
   <v type="int" >       12       28       29       39       42 </v>
   <v type="int" >       12       28       38       39       42 </v>
   <v type="int" >       12       28       38       41       42 </v>
   <v type="int" >       12       24       25       29       39 </v>
   <v type="int" >       12       24       28       29       39 </v>
   <v type="int" >       12       24       28       38       39 </v>
   <v type="int" >       12        9       10       10       14 </v>
   <v type="int" >       12        9        9       10       14 </v>
   <v type="int" >       12        9        9       13       14 </v>
   <v type="int" >       12        9       10       14       14 </v>
   <v type="int" >       12        9       13       14       14 </v>
   <v type="int" >       12        9       13       13       14 </v>
   <v type="int" >       12       27       28       31       41 </v>
   <v type="int" >       12       27       28       38       41 </v>
   <v type="int" >       12       27       37       38       41 </v>
   <v type="int" >       12       23       24       28       38 </v>
   <v type="int" >       12       23       27       28       38 </v>
   <v type="int" >       12       23       27       37       38 </v>
   <v type="int" >       12        8        9        9       13 </v>
   <v type="int" >       12        8        8        9       13 </v>
   <v type="int" >       12        8        8       12       13 </v>
   <v type="int" >       12        8        9       13       13 </v>
   <v type="int" >       12        8       12       13       13 </v>
   <v type="int" >       12        8       12       12       13 </v>
   <v type="int" >       12       22       23       27       37 </v>
   <v type="int" >       12        7        8        8       12 </v>
   <v type="int" >       12        7        7        8       12 </v>
   <v type="int" >       12        7        8       12       12 </v>
   <v type="int" >       12        2        2        2        3 </v>
   <v type="int" >       12        2        2        3        3 </v>
   <v type="int" >       12        2        3        3        3 </v>
   <v type="int" >       12       37       38       38       41 </v>
   <v type="int" >       12       38       38       41       41 </v>
   <v type="int" >       12       38       41       41       47 </v>
   <v type="int" >       12       38       39       41       42 </v>
   <v type="int" >       12       38       41       41       42 </v>
   <v type="int" >       12       41       41       42       47 </v>
   <v type="int" >       12       39       41       42       42 </v>
   <v type="int" >       24       41       42       42       48 </v>
   <v type="int" >       24       41       42       47       48 </v>
   <v type="int" >       12       39       40       42       43 </v>
   <v type="int" >       12       39       42       42       43 </v>
   <v type="int" >       12       42       42       43       48 </v>
   <v type="int" >       12       40       42       43       43 </v>
   <v type="int" >       12       42       43       43       49 </v>
   <v type="int" >       12       42       43       48       49 </v>
   <v type="int" >        6       40       40       43       43 </v>
   <v type="int" >       12       40       43       43       43 </v>
   <v type="int" >       12       43       43       43       49 </v>
   <v type="int" >        6       43       43       49       49 </v>
   <v type="int" >        6       12       12       13       13 </v>
   <v type="int" >       12       12       13       13       13 </v>
   <v type="int" >       12       13       13       13       16 </v>
   <v type="int" >        6       13       13       16       16 </v>
   <v type="int" >       12       41       42       44       47 </v>
   <v type="int" >       12       42       44       47       48 </v>
   <v type="int" >       12       44       47       48       50 </v>
   <v type="int" >       12       42       43       45       48 </v>
   <v type="int" >       12       42       44       45       48 </v>
   <v type="int" >       12       44       45       48       50 </v>
   <v type="int" >       12       43       45       48       49 </v>
   <v type="int" >       12       45       48       49       51 </v>
   <v type="int" >       12       45       48       50       51 </v>
   <v type="int" >       12       43       43       45       49 </v>
   <v type="int" >       12       43       45       45       49 </v>
   <v type="int" >       12       45       45       49       51 </v>
   <v type="int" >       12       43       45       49       49 </v>
   <v type="int" >       12       45       49       49       51 </v>
   <v type="int" >       12       45       49       51       51 </v>
   <v type="int" >       12       42       43       44       49 </v>
   <v type="int" >       12       43       44       45       49 </v>
   <v type="int" >       12       44       45       49       51 </v>
   <v type="int" >       12       42       44       48       49 </v>
   <v type="int" >       12       44       48       49       50 </v>
   <v type="int" >       12       44       49       50       51 </v>
   <v type="int" >       12       42       42       44       48 </v>
   <v type="int" >       12       42       44       48       50 </v>
   <v type="int" >       12       42       47       48       48 </v>
   <v type="int" >       12       42       48       48       50 </v>
   <v type="int" >       12       38       39       41       47 </v>
   <v type="int" >       12       39       41       42       47 </v>
   <v type="int" >       12       39       42       47       48 </v>
   <v type="int" >       12       13       13       14       16 </v>
   <v type="int" >       12       13       14       14       16 </v>
   <v type="int" >       12       14       14       16       17 </v>
   <v type="int" >       12       13       14       16       16 </v>
   <v type="int" >       12       14       16       16       17 </v>
   <v type="int" >       12       14       16       17       17 </v>
   <v type="int" >       12       44       45       46       50 </v>
   <v type="int" >       12       45       46       50       51 </v>
   <v type="int" >       12       46       50       51       52 </v>
   <v type="int" >       24       45       45       46       51 </v>
   <v type="int" >       12       45       46       46       51 </v>
   <v type="int" >       12       46       46       51       52 </v>
   <v type="int" >       12       45       46       51       51 </v>
   <v type="int" >       12       46       51       51       52 </v>
   <v type="int" >       12       46       51       52       52 </v>
   <v type="int" >       12       44       45       45       51 </v>
   <v type="int" >       12       45       46       51       52 </v>
   <v type="int" >       12       44       45       50       51 </v>
   <v type="int" >       12       45       50       51       51 </v>
   <v type="int" >       24       45       51       51       52 </v>
   <v type="int" >       12       42       43       44       50 </v>
   <v type="int" >       12       43       44       45       50 </v>
   <v type="int" >       12       43       45       50       51 </v>
   <v type="int" >       12       42       43       48       50 </v>
   <v type="int" >       12       43       48       49       50 </v>
   <v type="int" >       12       43       49       50       51 </v>
   <v type="int" >       12       39       40       42       48 </v>
   <v type="int" >       12       40       42       43       48 </v>
   <v type="int" >       12       40       43       48       49 </v>
   <v type="int" >       12       14       14       15       17 </v>
   <v type="int" >       12       14       15       15       17 </v>
   <v type="int" >       12       15       15       17       18 </v>
   <v type="int" >       12       14       15       17       17 </v>
   <v type="int" >       12       15       17       17       18 </v>
   <v type="int" >       12       15       17       18       18 </v>
   <v type="int" >       12       46       46       46       52 </v>
   <v type="int" >       12       46       46       52       52 </v>
   <v type="int" >       12       46       52       52       52 </v>
   <v type="int" >       12       45       45       46       52 </v>
   <v type="int" >       12       45       46       46       52 </v>
   <v type="int" >       12       45       46       52       52 </v>
   <v type="int" >       12       45       45       51       52 </v>
   <v type="int" >       12       45       51       52       52 </v>
   <v type="int" >       12       43       43       45       51 </v>
   <v type="int" >       12       43       45       45       51 </v>
   <v type="int" >       12       43       45       51       51 </v>
   <v type="int" >       12       43       43       49       51 </v>
   <v type="int" >       12       43       49       49       51 </v>
   <v type="int" >       12       43       49       51       51 </v>
   <v type="int" >       12       40       40       43       49 </v>
   <v type="int" >       12       40       43       43       49 </v>
   <v type="int" >       12       40       43       49       49 </v>
   <v type="int" >       24       15       15       15       18 </v>
   <v type="int" >       24       15       15       18       18 </v>
   <v type="int" >       24       15       18       18       18 </v>
   <v type="int" >       12       44       45       46       52 </v>
   <v type="int" >       12       44       45       51       52 </v>
   <v type="int" >       12       44       50       51       52 </v>
   <v type="int" >       12       42       43       45       51 </v>
   <v type="int" >       12       42       44       45       51 </v>
   <v type="int" >       12       42       44       50       51 </v>
   <v type="int" >       12       42       43       49       51 </v>
   <v type="int" >       12       42       48       49       51 </v>
   <v type="int" >       12       42       48       50       51 </v>
   <v type="int" >       12       39       40       43       49 </v>
   <v type="int" >       12       39       42       43       49 </v>
   <v type="int" >       12       39       42       48       49 </v>
   <v type="int" >       12       14       15       15       18 </v>
   <v type="int" >       12       14       14       15       18 </v>
   <v type="int" >       12       14       14       17       18 </v>
   <v type="int" >       12       14       15       18       18 </v>
   <v type="int" >       12       14       17       18       18 </v>
   <v type="int" >       12       14       17       17       18 </v>
   <v type="int" >       12       41       42       44       50 </v>
   <v type="int" >       12       41       42       48       50 </v>
   <v type="int" >       12       41       47       48       50 </v>
   <v type="int" >       12       38       39       42       48 </v>
   <v type="int" >       12       38       41       42       48 </v>
   <v type="int" >       12       38       41       47       48 </v>
   <v type="int" >       12       13       14       14       17 </v>
   <v type="int" >       12       13       13       14       17 </v>
   <v type="int" >       12       13       13       16       17 </v>
   <v type="int" >       12       13       14       17       17 </v>
   <v type="int" >       12       13       16       17       17 </v>
   <v type="int" >       12       13       16       16       17 </v>
   <v type="int" >       12       37       38       41       47 </v>
   <v type="int" >       12       12       13       13       16 </v>
   <v type="int" >       12       12       12       13       16 </v>
   <v type="int" >       12       12       13       16       16 </v>
   <v type="int" >       12        3        3        3        4 </v>
   <v type="int" >       12        3        3        4        4 </v>
   <v type="int" >       12        3        4        4        4 </v>
   <v type="int" >       12       47       48       48       50 </v>
   <v type="int" >       12       48       48       50       50 </v>
   <v type="int" >       12       48       50       50       53 </v>
   <v type="int" >       12       48       49       50       51 </v>
   <v type="int" >       12       48       50       50       51 </v>
   <v type="int" >       12       50       50       51       53 </v>
   <v type="int" >       12       49       50       51       51 </v>
   <v type="int" >       24       50       51       51       54 </v>
   <v type="int" >       24       50       51       53       54 </v>
   <v type="int" >        6       49       49       51       51 </v>
   <v type="int" >       12       49       51       51       51 </v>
   <v type="int" >       12       51       51       51       54 </v>
   <v type="int" >        6       51       51       54       54 </v>
   <v type="int" >        6       16       16       17       17 </v>
   <v type="int" >       12       16       17       17       17 </v>
   <v type="int" >       12       17       17       17       19 </v>
   <v type="int" >        6       17       17       19       19 </v>
   <v type="int" >       12       50       51       52       53 </v>
   <v type="int" >       12       51       52       53       54 </v>
   <v type="int" >       12       52       53       54       55 </v>
   <v type="int" >       24       51       51       52       54 </v>
   <v type="int" >       12       51       52       52       54 </v>
   <v type="int" >       12       52       52       54       55 </v>
   <v type="int" >       12       51       52       54       54 </v>
   <v type="int" >       12       52       54       54       55 </v>
   <v type="int" >       12       52       54       55       55 </v>
   <v type="int" >       12       51       52       54       55 </v>
   <v type="int" >       12       51       53       54       54 </v>
   <v type="int" >       24       51       54       54       55 </v>
   <v type="int" >       12       48       49       50       53 </v>
   <v type="int" >       12       49       50       51       53 </v>
   <v type="int" >       12       49       51       53       54 </v>
   <v type="int" >       12       17       17       18       19 </v>
   <v type="int" >       12       17       18       18       19 </v>
   <v type="int" >       12       18       18       19       20 </v>
   <v type="int" >       12       17       18       19       19 </v>
   <v type="int" >       12       18       19       19       20 </v>
   <v type="int" >       12       18       19       20       20 </v>
   <v type="int" >       12       52       52       52       55 </v>
   <v type="int" >       12       52       52       55       55 </v>
   <v type="int" >       12       52       55       55       55 </v>
   <v type="int" >       12       51       51       52       55 </v>
   <v type="int" >       12       51       52       52       55 </v>
   <v type="int" >       12       51       52       55       55 </v>
   <v type="int" >       12       51       51       54       55 </v>
   <v type="int" >       12       51       54       55       55 </v>
   <v type="int" >       12       49       49       51       54 </v>
   <v type="int" >       12       49       51       51       54 </v>
   <v type="int" >       12       49       51       54       54 </v>
   <v type="int" >       24       18       18       18       20 </v>
   <v type="int" >       24       18       18       20       20 </v>
   <v type="int" >       24       18       20       20       20 </v>
   <v type="int" >       12       50       51       52       55 </v>
   <v type="int" >       12       50       51       54       55 </v>
   <v type="int" >       12       50       53       54       55 </v>
   <v type="int" >       12       48       49       51       54 </v>
   <v type="int" >       12       48       50       51       54 </v>
   <v type="int" >       12       48       50       53       54 </v>
   <v type="int" >       12       17       18       18       20 </v>
   <v type="int" >       12       17       17       18       20 </v>
   <v type="int" >       12       17       17       19       20 </v>
   <v type="int" >       12       17       18       20       20 </v>
   <v type="int" >       12       17       19       20       20 </v>
   <v type="int" >       12       17       19       19       20 </v>
   <v type="int" >       12       47       48       50       53 </v>
   <v type="int" >       12       16       17       17       19 </v>
   <v type="int" >       12       16       16       17       19 </v>
   <v type="int" >       12       16       17       19       19 </v>
   <v type="int" >       12        4        4        4        5 </v>
   <v type="int" >       12        4        4        5        5 </v>
   <v type="int" >       12        4        5        5        5 </v>
   <v type="int" >       12       53       54       54       55 </v>
   <v type="int" >       18       54       54       55       55 </v>
   <v type="int" >       24       54       55       55       56 </v>
   <v type="int" >       12       54       55       55       55 </v>
   <v type="int" >       24       55       55       55       56 </v>
   <v type="int" >       18       55       55       56       56 </v>
   <v type="int" >        6       19       19       20       20 </v>
   <v type="int" >       12       19       20       20       20 </v>
   <v type="int" >       36       20       20       20       21 </v>
   <v type="int" >       30       20       20       21       21 </v>
   <v type="int" >       12       55       56       56       56 </v>
   <v type="int" >       12       54       54       55       56 </v>
   <v type="int" >       12       54       55       56       56 </v>
   <v type="int" >       24       20       21       21       21 </v>
   <v type="int" >       12       53       54       55       56 </v>
   <v type="int" >       12       19       20       20       21 </v>
   <v type="int" >       12       19       19       20       21 </v>
   <v type="int" >       12       19       20       21       21 </v>
   <v type="int" >       12        5        5        5        6 </v>
   <v type="int" >       12        5        5        6        6 </v>
   <v type="int" >       12        5        6        6        6 </v>
   <v type="int" >        6       56       56       56       56 </v>
   <v type="int" >       18       21       21       21       21 </v>
   <v type="int" >       18        6        6        6        6 </v>
   <v type="int" >        6        1        1        1        1 </v>
  </varray>
  <i name="volumeweight">      0.00009645 </i>
 </kpoints>
 <parameters>
  <separator name="general" >
   <i type="string" name="SYSTEM">unknown system</i>
   <i type="logical" name="LCOMPAT"> F  </i>
  </separator>
  <separator name="electronic" >
   <i type="string" name="PREC">accura</i>
   <i name="ENMAX">    300.00000000</i>
   <i name="ENAUG">    402.10800000</i>
   <i name="EDIFF">      0.00000001</i>
   <i type="int" name="IALGO">    38</i>
   <i type="int" name="IWAVPR">    11</i>
   <i type="int" name="NBANDS">    10</i>
   <i name="NELECT">     12.00000000</i>
   <i type="int" name="TURBO">     0</i>
   <i type="int" name="IRESTART">     0</i>
   <i type="int" name="NREBOOT">     0</i>
   <i type="int" name="NMIN">     0</i>
   <i name="EREF">      0.00000000</i>
   <separator name="electronic smearing" >
    <i type="int" name="ISMEAR">    -5</i>
    <i name="SIGMA">      0.20000000</i>
    <i name="KSPACING">      0.50000000</i>
    <i type="logical" name="KGAMMA"> T  </i>
   </separator>
   <separator name="electronic projectors" >
    <i type="logical" name="LREAL"> F  </i>
    <v name="ROPT">      0.00000000</v>
    <i type="int" name="LMAXPAW">  -100</i>
    <i type="int" name="LMAXMIX">     2</i>
    <i type="logical" name="NLSPLINE"> F  </i>
   </separator>
   <separator name="electronic startup" >
    <i type="int" name="ISTART">     0</i>
    <i type="int" name="ICHARG">     2</i>
    <i type="int" name="INIWAV">     1</i>
   </separator>
   <separator name="electronic spin" >
    <i type="int" name="ISPIN">     1</i>
    <i type="logical" name="LNONCOLLINEAR"> F  </i>
    <v name="MAGMOM">      1.00000000      1.00000000</v>
    <i name="NUPDOWN">     -1.00000000</i>
    <i type="logical" name="LSORBIT"> F  </i>
    <v name="SAXIS">      0.00000000      0.00000000      1.00000000</v>
    <i type="logical" name="LSPIRAL"> F  </i>
    <v name="QSPIRAL">      0.00000000      0.00000000      0.00000000</v>
    <i type="logical" name="LZEROZ"> F  </i>
   </separator>
   <separator name="electronic exchange-correlation" >
    <i type="logical" name="LASPH"> F  </i>
    <i type="logical" name="LMETAGGA"> F  </i>
   </separator>
   <separator name="electronic convergence" >
    <i type="int" name="NELM">    60</i>
    <i type="int" name="NELMDL">    -5</i>
    <i type="int" name="NELMIN">     2</i>
    <i name="ENINI">    300.00000000</i>
    <separator name="electronic convergence detail" >
     <i type="logical" name="LDIAG"> T  </i>
     <i type="logical" name="LSUBROT"> F  </i>
     <i name="WEIMIN">      0.00100000</i>
     <i name="EBREAK">      0.00000000</i>
     <i name="DEPER">      0.30000000</i>
     <i type="int" name="NRMM">     4</i>
     <i name="TIME">      0.40000000</i>
    </separator>
   </separator>
   <separator name="electronic mixer" >
    <i name="AMIX">      0.40000000</i>
    <i name="BMIX">      1.00000000</i>
    <i name="AMIN">      0.10000000</i>
    <i name="AMIX_MAG">      1.60000000</i>
    <i name="BMIX_MAG">      1.00000000</i>
    <separator name="electronic mixer details" >
     <i type="int" name="IMIX">     4</i>
     <i type="logical" name="MIXFIRST"> F  </i>
     <i type="int" name="MAXMIX">   -45</i>
     <i name="WC">    100.00000000</i>
     <i type="int" name="INIMIX">     1</i>
     <i type="int" name="MIXPRE">     1</i>
     <i type="int" name="MREMOVE">     5</i>
    </separator>
   </separator>
   <separator name="electronic dipolcorrection" >
    <i type="logical" name="LDIPOL"> F  </i>
    <i type="logical" name="LMONO"> F  </i>
    <i type="int" name="IDIPOL">     0</i>
    <i name="EPSILON">      1.00000000</i>
    <v name="DIPOL">   -100.00000000   -100.00000000   -100.00000000</v>
    <i name="EFIELD">      0.00000000</i>
   </separator>
  </separator>
  <separator name="grids" >
   <i type="int" name="NGX">    14</i>
   <i type="int" name="NGY">    14</i>
   <i type="int" name="NGZ">    14</i>
   <i type="int" name="NGXF">    28</i>
   <i type="int" name="NGYF">    28</i>
   <i type="int" name="NGZF">    28</i>
   <i type="logical" name="ADDGRID"> T  </i>
  </separator>
  <separator name="ionic" >
   <i type="int" name="NSW">    11</i>
   <i type="int" name="IBRION">     2</i>
   <i type="int" name="MDALGO">     0</i>
   <i type="int" name="ISIF">     7</i>
   <i name="PSTRESS">      0.00000000</i>
   <i name="EDIFFG">      0.00000010</i>
   <i type="int" name="NFREE">     1</i>
   <i name="POTIM">      0.50000000</i>
   <i name="SMASS">     -3.00000000</i>
   <i name="SCALEE">      1.00000000</i>
  </separator>
  <separator name="ionic md" >
   <i name="TEBEG">      0.00010000</i>
   <i name="TEEND">      0.00010000</i>
   <i type="int" name="NBLOCK">     1</i>
   <i type="int" name="KBLOCK">    11</i>
   <i type="int" name="NPACO">   256</i>
   <i name="APACO">     16.00000000</i>
  </separator>
  <separator name="symmetry" >
   <i type="int" name="ISYM">     2</i>
   <i name="SYMPREC">      0.00001000</i>
  </separator>
  <separator name="dos" >
   <i type="int" name="LORBIT">     0</i>
   <v name="RWIGS">     -1.00000000</v>
   <i type="int" name="NEDOS">   301</i>
   <i name="EMIN">     10.00000000</i>
   <i name="EMAX">    -10.00000000</i>
   <i name="EFERMI">      0.00000000</i>
  </separator>
  <separator name="writing" >
   <i type="int" name="NWRITE">     2</i>
   <i type="logical" name="LWAVE"> F  </i>
   <i type="logical" name="LDOWNSAMPLE"> F  </i>
   <i type="logical" name="LCHARG"> F  </i>
   <i type="logical" name="LPARD"> F  </i>
   <i type="logical" name="LVTOT"> F  </i>
   <i type="logical" name="LVHAR"> F  </i>
   <i type="logical" name="LELF"> F  </i>
   <i type="logical" name="LOPTICS"> F  </i>
   <v name="STM">      0.00000000      0.00000000      0.00000000      0.00000000      0.00000000      0.00000000      0.00000000</v>
  </separator>
  <separator name="performance" >
   <i type="int" name="NPAR">     1</i>
   <i type="int" name="NSIM">     4</i>
   <i type="int" name="NBLK">    -1</i>
   <i type="logical" name="LPLANE"> T  </i>
   <i type="logical" name="LSCALAPACK"> T  </i>
   <i type="logical" name="LSCAAWARE"> F  </i>
   <i type="logical" name="LSCALU"> F  </i>
   <i type="logical" name="LASYNC"> F  </i>
   <i type="logical" name="LORBITALREAL"> F  </i>
  </separator>
  <separator name="miscellaneous" >
   <i type="int" name="IDIOT">     3</i>
   <i type="int" name="ISPECIAL">     0</i>
   <i type="logical" name="LMUSIC"> F  </i>
   <v name="POMASS">     51.99600000</v>
   <v name="DARWINR">      0.00000000</v>
   <v name="DARWINV">      1.00000000</v>
   <i type="logical" name="LCORR"> T  </i>
  </separator>
  <i type="logical" name="GGA_COMPAT"> T  </i>
  <i type="logical" name="LBERRY"> F  </i>
  <i type="int" name="ICORELEVEL">     0</i>
  <i type="logical" name="LDAU"> F  </i>
  <i type="int" name="I_CONSTRAINED_M">     0</i>
  <separator name="electronic exchange-correlation" >
   <i type="string" name="GGA">--</i>
   <i type="int" name="VOSKOWN">     0</i>
   <i type="logical" name="LHFCALC"> F  </i>
   <i type="string" name="PRECFOCK"></i>
   <i type="logical" name="LSYMGRAD"> F  </i>
   <i type="logical" name="LHFONE"> F  </i>
   <i type="logical" name="LRHFCALC"> F  </i>
   <i type="logical" name="LTHOMAS"> F  </i>
   <i type="logical" name="LMODELHF"> F  </i>
   <i name="ENCUT4O">     -1.00000000</i>
   <i type="int" name="EXXOEP">     0</i>
   <i type="int" name="FOURORBIT">     0</i>
   <i name="AEXX">      0.00000000</i>
   <i name="HFALPHA">      0.00000000</i>
   <i name="MCALPHA">      0.00000000</i>
   <i name="ALDAX">      1.00000000</i>
   <i name="AGGAX">      1.00000000</i>
   <i name="ALDAC">      1.00000000</i>
   <i name="AGGAC">      1.00000000</i>
   <i type="int" name="NKREDX">     1</i>
   <i type="int" name="NKREDY">     1</i>
   <i type="int" name="NKREDZ">     1</i>
   <i type="logical" name="SHIFTRED"> F  </i>
   <i type="logical" name="ODDONLY"> F  </i>
   <i type="logical" name="EVENONLY"> F  </i>
   <i type="int" name="LMAXFOCK">     0</i>
   <i type="int" name="NMAXFOCKAE">     0</i>
   <i type="logical" name="LFOCKAEDFT"> F  </i>
   <i name="HFSCREEN">      0.00000000</i>
   <i name="HFSCREENC">      0.00000000</i>
   <i type="int" name="NBANDSGWLOW">     0</i>
  </separator>
  <separator name="vdW DFT" >
   <i type="logical" name="LUSE_VDW"> F  </i>
   <i name="Zab_VDW">     -0.84910000</i>
   <i name="PARAM1">      0.12340000</i>
   <i name="PARAM2">      1.00000000</i>
   <i name="PARAM3">      0.00000000</i>
  </separator>
  <separator name="model GW" >
   <i type="int" name="MODEL_GW">     0</i>
   <i name="MODEL_EPS0">      3.93149160</i>
   <i name="MODEL_ALPHA">      1.00000000</i>
  </separator>
  <separator name="linear response parameters" >
   <i type="logical" name="LEPSILON"> F  </i>
   <i type="logical" name="LRPA"> F  </i>
   <i type="logical" name="LNABLA"> F  </i>
   <i type="logical" name="LVEL"> F  </i>
   <i type="int" name="KINTER">     0</i>
   <i name="CSHIFT">      0.10000000</i>
   <i name="OMEGAMAX">     -1.00000000</i>
   <i name="DEG_THRESHOLD">      0.00200000</i>
   <i name="RTIME">     -0.10000000</i>
   <i name="WPLASMAI">      0.00000000</i>
   <v name="DFIELD">      0.00000000      0.00000000      0.00000000</v>
   <v name="WPLASMA">      0.00000000      0.00000000      0.00000000      0.00000000      0.00000000      0.00000000      0.00000000      0.00000000      0.00000000</v>
  </separator>
  <separator name="orbital magnetization" >
   <i type="logical" name="NUCIND"> F  </i>
   <v name="MAGPOS">      0.00000000      0.00000000      0.00000000</v>
   <i type="logical" name="LNICSALL"> T  </i>
   <i type="logical" name="ORBITALMAG"> F  </i>
   <i type="logical" name="LMAGBLOCH"> F  </i>
   <i type="logical" name="LCHIMAG"> F  </i>
   <i type="logical" name="LGAUGE"> T  </i>
   <i type="int" name="MAGATOM">     0</i>
   <v name="MAGDIPOL">      0.00000000      0.00000000      0.00000000</v>
   <v name="AVECCONST">      0.00000000      0.00000000      0.00000000</v>
  </separator>
  <separator name="response functions" >
   <i type="logical" name="LADDER"> F  </i>
   <i type="logical" name="LRPAFORCE"> F  </i>
   <i type="logical" name="LFXC"> F  </i>
   <i type="logical" name="LHARTREE"> T  </i>
   <i type="int" name="IBSE">     0</i>
   <v type="int" name="KPOINT">    -1     0     0     0</v>
   <i type="logical" name="LTCTE"> F  </i>
   <i type="logical" name="LTETE"> F  </i>
   <i type="logical" name="LTRIPLET"> F  </i>
   <i type="logical" name="LFXCEPS"> F  </i>
   <i type="logical" name="LFXHEG"> F  </i>
   <i type="int" name="NATURALO">     2</i>
   <i type="logical" name="L2ORDER"> F  </i>
   <i type="logical" name="LMP2LT"> F  </i>
   <i type="logical" name="LUSEW"> F  </i>
   <i name="ENCUTGW">     -2.00000000</i>
   <i name="ENCUTGWSOFT">     -2.00000000</i>
   <i name="ENCUTLF">     -1.00000000</i>
   <i type="int" name="LMAXMP2">    -1</i>
   <i name="SCISSOR">      0.00000000</i>
   <i type="int" name="NOMEGA">     0</i>
   <i type="int" name="NOMEGAR">     0</i>
   <i type="int" name="NBANDSGW">    -1</i>
   <i type="int" name="NBANDSO">    -1</i>
   <i type="int" name="NBANDSV">    -1</i>
   <i type="int" name="NELM">     1</i>
   <i type="int" name="NELMHF">     1</i>
   <i type="int" name="DIM">     3</i>
   <i type="int" name="ANTIRES">     0</i>
   <i name="OMEGAMAX">    -30.00000000</i>
   <i name="OMEGAMIN">    -30.00000000</i>
   <i name="OMEGATL">   -200.00000000</i>
   <i type="int" name="OMEGAGRID">   140</i>
   <i name="CSHIFT">     -0.10000000</i>
   <i type="logical" name="SELFENERGY"> F  </i>
   <i type="logical" name="LSPECTRAL"> F  </i>
   <i type="logical" name="LSPECTRALGW"> F  </i>
   <i type="logical" name="LSINGLES"> F  </i>
   <i type="logical" name="LFERMIGW"> F  </i>
   <i type="logical" name="ODDONLYGW"> F  </i>
   <i type="logical" name="EVENONLYGW"> F  </i>
   <i type="int" name="NKREDLFX">     1</i>
   <i type="int" name="NKREDLFY">     1</i>
   <i type="int" name="NKREDLFZ">     1</i>
   <i type="int" name="MAXMEM">  2800</i>
   <i type="int" name="TELESCOPE">     0</i>
   <i type="int" name="TAUPAR">     1</i>
   <i type="int" name="OMEGAPAR">    -1</i>
   <i name="LAMBDA">      1.00000000</i>
  </separator>
  <separator name="External order field" >
   <i name="OFIELD_KAPPA">      0.00000000</i>
   <v name="OFIELD_K">      0.00000000      0.00000000      0.00000000</v>
   <i name="OFIELD_Q6_NEAR">      0.00000000</i>
   <i name="OFIELD_Q6_FAR">      0.00000000</i>
   <i name="OFIELD_A">      0.00000000</i>
  </separator>
 </parameters>
 <atominfo>
  <atoms>       2 </atoms>
  <types>       1 </types>
  <array name="atoms" >
   <dimension dim="1">ion</dimension>
   <field type="string">element</field>
   <field type="int">atomtype</field>
   <set>
    <rc><c>Cr</c><c>   1</c></rc>
    <rc><c>Cr</c><c>   1</c></rc>
   </set>
  </array>
  <array name="atomtypes" >
   <dimension dim="1">type</dimension>
   <field type="int">atomspertype</field>
   <field type="string">element</field>
   <field>mass</field>
   <field>valence</field>
   <field type="string">pseudopotential</field>
   <set>
    <rc><c>   2</c><c>Cr</c><c>     51.99600000</c><c>      6.00000000</c><c>  PAW_PBE Cr 06Sep2000                  </c></rc>
   </set>
  </array>
 </atominfo>
 <structure name="initialpos" >
  <crystal>
   <varray name="basis" >
    <v>       2.35764656       0.00000000       0.00000000 </v>
    <v>       0.00000000       2.35764656       0.00000000 </v>
    <v>       0.00000000       0.00000000       2.35764656 </v>
   </varray>
   <i name="volume">     13.10497200 </i>
   <varray name="rec_basis" >
    <v>       0.42415179       0.00000000       0.00000000 </v>
    <v>       0.00000000       0.42415179       0.00000000 </v>
    <v>       0.00000000       0.00000000       0.42415179 </v>
   </varray>
  </crystal>
  <varray name="positions" >
   <v>       0.00000000       0.00000000       0.00000000 </v>
   <v>       0.50000000       0.50000000       0.50000000 </v>
  </varray>
 </structure>
 <calculation>
  <scstep>
   <time name="dav">    0.04    0.04</time>
   <time name="total">    0.10    0.11</time>
   <energy>
    <i name="alphaZ">    126.15118654 </i>
    <i name="ewald">   -800.18387015 </i>
    <i name="hartreedc">    -36.21658786 </i>
    <i name="XCdc">    -35.45540263 </i>
    <i name="pawpsdc">    555.30997384 </i>
    <i name="pawaedc">   -515.76403743 </i>
    <i name="eentropy">      0.00000000 </i>
    <i name="bandstr">    206.91469939 </i>
    <i name="atom">    553.74622060 </i>
    <i name="e_fr_energy">     54.50218230 </i>
    <i name="e_wo_entrp">     54.50218230 </i>
    <i name="e_0_energy">     54.50218230 </i>
   </energy>
  </scstep>
  <scstep>
   <time name="dav">    0.03    0.04</time>
   <time name="total">    0.05    0.05</time>
   <energy>
    <i name="e_fr_energy">     -8.98139747 </i>
    <i name="e_wo_entrp">     -8.98139747 </i>
    <i name="e_0_energy">     -8.98139747 </i>
   </energy>
  </scstep>
  <scstep>
   <time name="dav">    0.04    0.04</time>
   <time name="total">    0.05    0.06</time>
   <energy>
    <i name="e_fr_energy">    -11.85234046 </i>
    <i name="e_wo_entrp">    -11.85234046 </i>
    <i name="e_0_energy">    -11.85234046 </i>
   </energy>
  </scstep>
  <scstep>
   <time name="dav">    0.04    0.04</time>
   <time name="total">    0.05    0.05</time>
   <energy>
    <i name="e_fr_energy">    -11.92692061 </i>
    <i name="e_wo_entrp">    -11.92692061 </i>
    <i name="e_0_energy">    -11.92692061 </i>
   </energy>
  </scstep>
  <scstep>
   <time name="dav">    0.04    0.04</time>
[...]
       <r>    5.6087    1.0000 </r>
       <r>    5.6469    1.0000 </r>
       <r>    5.6469    1.0000 </r>
       <r>    9.3090    0.0000 </r>
       <r>    9.4987    0.0000 </r>
       <r>    9.4987    0.0000 </r>
       <r>   11.3748    0.0000 </r>
      </set>
      <set comment="kpoint 48">
       <r>    4.6842    1.0000 </r>
       <r>    4.9883    1.0000 </r>
       <r>    5.5459    1.0000 </r>
       <r>    5.5575    1.0000 </r>
       <r>    5.7603    1.0000 </r>
       <r>    6.0756    1.0000 </r>
       <r>    9.2543    0.0000 </r>
       <r>    9.2793    0.0000 </r>
       <r>    9.4750    0.0000 </r>
       <r>    9.6481    0.0000 </r>
      </set>
      <set comment="kpoint 49">
       <r>    4.7136    1.0000 </r>
       <r>    4.7830    1.0000 </r>
       <r>    5.5027    1.0000 </r>
       <r>    5.5178    1.0000 </r>
       <r>    6.1595    1.0000 </r>
       <r>    6.3136    1.0000 </r>
       <r>    9.2021    0.0000 </r>
       <r>    9.2066    0.0000 </r>
       <r>    9.5973    0.0000 </r>
       <r>    9.6632    0.0000 </r>
      </set>
      <set comment="kpoint 50">
       <r>    4.8454    1.0000 </r>
       <r>    4.8826    1.0000 </r>
       <r>    5.4252    1.0000 </r>
       <r>    5.6161    1.0000 </r>
       <r>    5.9474    1.0000 </r>
       <r>    6.2369    1.0000 </r>
       <r>    9.3527    0.0000 </r>
       <r>    9.3677    0.0000 </r>
       <r>    9.4907    0.0000 </r>
       <r>    9.6192    0.0000 </r>
      </set>
      <set comment="kpoint 51">
       <r>    4.7542    1.0000 </r>
       <r>    4.7869    1.0000 </r>
       <r>    5.4100    1.0000 </r>
       <r>    5.4898    1.0000 </r>
       <r>    6.3450    1.0000 </r>
       <r>    6.4574    1.0000 </r>
       <r>    9.3525    0.0000 </r>
       <r>    9.3658    0.0000 </r>
       <r>    9.5699    0.0000 </r>
       <r>    9.6175    0.0000 </r>
      </set>
      <set comment="kpoint 52">
       <r>    4.7136    1.0000 </r>
       <r>    4.7386    1.0000 </r>
       <r>    5.3246    1.0000 </r>
       <r>    5.3698    1.0000 </r>
       <r>    6.6703    1.0000 </r>
       <r>    6.7091    1.0000 </r>
       <r>    9.4297    0.0000 </r>
       <r>    9.4378    0.0000 </r>
       <r>    9.5699    0.0000 </r>
       <r>    9.5914    0.0000 </r>
      </set>
      <set comment="kpoint 53">
       <r>    4.9225    1.0000 </r>
       <r>    5.4066    1.0000 </r>
       <r>    5.4066    1.0000 </r>
       <r>    5.6051    1.0000 </r>
       <r>    5.9044    1.0000 </r>
       <r>    5.9044    1.0000 </r>
       <r>    9.4868    0.0000 </r>
       <r>    9.4868    0.0000 </r>
       <r>    9.5086    0.0000 </r>
       <r>    9.5086    0.0000 </r>
      </set>
      <set comment="kpoint 54">
       <r>    4.9747    1.0000 </r>
       <r>    5.1448    1.0000 </r>
       <r>    5.4700    1.0000 </r>
       <r>    5.6354    1.0000 </r>
       <r>    6.0092    1.0000 </r>
       <r>    6.1221    1.0000 </r>
       <r>    9.4758    0.0000 </r>
       <r>    9.4777    0.0000 </r>
       <r>    9.5665    0.0000 </r>
       <r>    9.5779    0.0000 </r>
      </set>
      <set comment="kpoint 55">
       <r>    5.1069    1.0000 </r>
       <r>    5.2637    1.0000 </r>
       <r>    5.3550    1.0000 </r>
       <r>    5.5155    1.0000 </r>
       <r>    6.1207    1.0000 </r>
       <r>    6.1594    1.0000 </r>
       <r>    9.5281    0.0000 </r>
       <r>    9.5303    0.0000 </r>
       <r>    9.5800    0.0000 </r>
       <r>    9.5845    0.0000 </r>
      </set>
      <set comment="kpoint 56">
       <r>    5.3187    1.0000 </r>
       <r>    5.4804    1.0000 </r>
       <r>    5.4804    1.0000 </r>
       <r>    5.7486    1.0000 </r>
       <r>    5.7486    1.0000 </r>
       <r>    5.8265    1.0000 </r>
       <r>    9.5846    0.0000 </r>
       <r>    9.5846    0.0000 </r>
       <r>    9.5871    0.0000 </r>
       <r>    9.5871    0.0000 </r>
      </set>
     </set>
    </set>
   </array>
  </eigenvalues>
  <separator name="orbital magnetization" >
   <v name="MAGDIPOLOUT">      0.00000000      0.00000000      0.00000000</v>
  </separator>
  <dos>
   <i name="efermi">      8.00426293 </i>
   <total>
    <array>
     <dimension dim="1">gridpoints</dimension>
     <dimension dim="2">spin</dimension>
     <field>energy</field>
     <field>total</field>
     <field>integrated</field>
     <set>
      <set comment="spin 1">
       <r>    -1.7933     0.0000     0.0000 </r>
       <r>    -1.7428     0.0000     0.0000 </r>
       <r>    -1.6922     0.0000     0.0000 </r>
       <r>    -1.6416     0.0000     0.0000 </r>
       <r>    -1.5911     0.0000     0.0000 </r>
       <r>    -1.5405     0.0000     0.0000 </r>
       <r>    -1.4900     0.0000     0.0000 </r>
       <r>    -1.4394     0.0000     0.0000 </r>
       <r>    -1.3888     0.0000     0.0000 </r>
       <r>    -1.3383     0.0000     0.0000 </r>
       <r>    -1.2877     0.0000     0.0000 </r>
       <r>    -1.2372     0.0000     0.0000 </r>
       <r>    -1.1866     0.0000     0.0000 </r>
       <r>    -1.1360     0.0000     0.0000 </r>
       <r>    -1.0855     0.0000     0.0000 </r>
       <r>    -1.0349     0.0000     0.0000 </r>
       <r>    -0.9843     0.0000     0.0000 </r>
       <r>    -0.9338     0.0000     0.0000 </r>
       <r>    -0.8832     0.0000     0.0000 </r>
       <r>    -0.8327     0.0000     0.0000 </r>
       <r>    -0.7821     0.0000     0.0000 </r>
       <r>    -0.7315     0.0000     0.0000 </r>
       <r>    -0.6810     0.0000     0.0000 </r>
       <r>    -0.6304     0.0000     0.0000 </r>
       <r>    -0.5799     0.0000     0.0000 </r>
       <r>    -0.5293     0.0000     0.0000 </r>
       <r>    -0.4787     0.0000     0.0000 </r>
       <r>    -0.4282     0.0000     0.0000 </r>
       <r>    -0.3776     0.0000     0.0000 </r>
       <r>    -0.3271     0.0000     0.0000 </r>
       <r>    -0.2765     0.0000     0.0000 </r>
       <r>    -0.2259     0.0000     0.0000 </r>
       <r>    -0.1754     0.0000     0.0000 </r>
       <r>    -0.1248     0.0000     0.0000 </r>
       <r>    -0.0743     0.0000     0.0000 </r>
       <r>    -0.0237     0.0000     0.0000 </r>
       <r>     0.0269     0.0000     0.0000 </r>
       <r>     0.0774     0.0000     0.0000 </r>
       <r>     0.1280     0.0000     0.0000 </r>
       <r>     0.1785     0.0000     0.0000 </r>
       <r>     0.2291     0.0258     0.0017 </r>
       <r>     0.2797     0.0340     0.0032 </r>
       <r>     0.3302     0.0430     0.0051 </r>
       <r>     0.3808     0.0528     0.0076 </r>
       <r>     0.4313     0.0634     0.0105 </r>
       <r>     0.4819     0.0749     0.0140 </r>
       <r>     0.5325     0.0751     0.0179 </r>
       <r>     0.5830     0.0804     0.0218 </r>
       <r>     0.6336     0.0853     0.0260 </r>
       <r>     0.6841     0.0898     0.0305 </r>
       <r>     0.7347     0.0939     0.0351 </r>
       <r>     0.7853     0.0976     0.0399 </r>
       <r>     0.8358     0.1019     0.0450 </r>
       <r>     0.8864     0.1075     0.0503 </r>
       <r>     0.9369     0.1135     0.0558 </r>
       <r>     0.9875     0.1198     0.0617 </r>
       <r>     1.0381     0.1264     0.0680 </r>
       <r>     1.0886     0.1334     0.0745 </r>
       <r>     1.1392     0.1357     0.0813 </r>
       <r>     1.1897     0.1399     0.0883 </r>
       <r>     1.2403     0.1438     0.0955 </r>
       <r>     1.2909     0.1473     0.1028 </r>
       <r>     1.3414     0.1505     0.1104 </r>
       <r>     1.3920     0.1554     0.1181 </r>
       <r>     1.4426     0.1603     0.1261 </r>
       <r>     1.4931     0.1653     0.1343 </r>
       <r>     1.5437     0.1705     0.1428 </r>
       <r>     1.5942     0.1760     0.1515 </r>
       <r>     1.6448     0.1816     0.1606 </r>
       <r>     1.6954     0.1871     0.1699 </r>
       <r>     1.7459     0.1927     0.1795 </r>
       <r>     1.7965     0.1983     0.1894 </r>
       <r>     1.8470     0.2040     0.1996 </r>
       <r>     1.8976     0.2101     0.2100 </r>
       <r>     1.9482     0.2156     0.2208 </r>
       <r>     1.9987     0.2220     0.2318 </r>
       <r>     2.0493     0.2286     0.2432 </r>
       <r>     2.0998     0.2354     0.2550 </r>
       <r>     2.1504     0.2424     0.2670 </r>
       <r>     2.2010     0.2494     0.2795 </r>
       <r>     2.2515     0.2563     0.2922 </r>
       <r>     2.3021     0.2633     0.3054 </r>
       <r>     2.3526     0.2702     0.3189 </r>
       <r>     2.4032     0.2772     0.3327 </r>
       <r>     2.4538     0.2842     0.3469 </r>
       <r>     2.5043     0.2913     0.3614 </r>
       <r>     2.5549     0.3047     0.3765 </r>
       <r>     2.6054     0.3157     0.3922 </r>
       <r>     2.6560     0.3271     0.4084 </r>
       <r>     2.7066     0.3391     0.4252 </r>
       <r>     2.7571     0.3516     0.4427 </r>
       <r>     2.8077     0.3645     0.4608 </r>
       <r>     2.8582     0.3779     0.4796 </r>
       <r>     2.9088     0.3917     0.4990 </r>
       <r>     2.9594     0.4059     0.5192 </r>
       <r>     3.0099     0.4248     0.5401 </r>
       <r>     3.0605     0.4485     0.5622 </r>
       <r>     3.1110     0.4748     0.5855 </r>
       <r>     3.1616     0.5037     0.6103 </r>
       <r>     3.2122     0.5352     0.6365 </r>
       <r>     3.2627     0.5674     0.6644 </r>
       <r>     3.3133     0.6011     0.6939 </r>
       <r>     3.3638     0.6356     0.7252 </r>
       <r>     3.4144     0.7816     0.7624 </r>
       <r>     3.4650     1.2981     0.8130 </r>
       <r>     3.5155     1.6270     0.8894 </r>
       <r>     3.5661     1.6004     0.9700 </r>
       <r>     3.6166     1.7618     1.0550 </r>
       <r>     3.6672     1.8788     1.1481 </r>
       <r>     3.7178     2.1745     1.2530 </r>
       <r>     3.7683     2.2488     1.3651 </r>
       <r>     3.8189     2.0095     1.4851 </r>
       <r>     3.8695     1.9522     1.5851 </r>
       <r>     3.9200     1.9333     1.6830 </r>
       <r>     3.9706     1.9461     1.7810 </r>
       <r>     4.0211     1.9408     1.8792 </r>
       <r>     4.0717     2.0049     1.9788 </r>
       <r>     4.1223     2.1015     2.0823 </r>
       <r>     4.1728     2.2200     2.1914 </r>
       <r>     4.2234     2.4144     2.3077 </r>
       <r>     4.2739     2.6463     2.4348 </r>
       <r>     4.3245     3.7570     2.5939 </r>
       <r>     4.3751     3.5705     2.7749 </r>
       <r>     4.4256     3.8162     2.9670 </r>
       <r>     4.4762     3.4651     3.1493 </r>
       <r>     4.5267     2.9986     3.3155 </r>
       <r>     4.5773     2.6146     3.4557 </r>
       <r>     4.6279     2.3545     3.5814 </r>
       <r>     4.6784     2.0808     3.6971 </r>
       <r>     4.7290     1.9458     3.7952 </r>
       <r>     4.7795     1.9591     3.8965 </r>
       <r>     4.8301     1.8844     3.9982 </r>
       <r>     4.8807     1.7011     4.0891 </r>
       <r>     4.9312     1.5194     4.1705 </r>
       <r>     4.9818     1.3480     4.2429 </r>
       <r>     5.0323     1.2324     4.3081 </r>
       <r>     5.0829     1.0119     4.3632 </r>
       <r>     5.1335     0.9338     4.4121 </r>
       <r>     5.1840     0.9357     4.4590 </r>
       <r>     5.2346     0.9323     4.5064 </r>
       <r>     5.2851     0.8917     4.5526 </r>
       <r>     5.3357     1.5477     4.6042 </r>
       <r>     5.3863     2.9804     4.7197 </r>
       <r>     5.4368     4.7731     4.9249 </r>
       <r>     5.4874     4.6591     5.1688 </r>
       <r>     5.5379     6.0300     5.4574 </r>
       <r>     5.5885     6.2690     5.7724 </r>
       <r>     5.6391     4.3393     6.0527 </r>
       <r>     5.6896     3.7798     6.2605 </r>
       <r>     5.7402     3.0912     6.4501 </r>
       <r>     5.7907     2.7648     6.6003 </r>
       <r>     5.8413     2.5370     6.7348 </r>
       <r>     5.8919     2.4451     6.8575 </r>
       <r>     5.9424     2.4623     6.9814 </r>
       <r>     5.9930     2.5907     7.1087 </r>
       <r>     6.0435     2.7014     7.2387 </r>
       <r>     6.0941     3.0433     7.3850 </r>
       <r>     6.1447     3.3894     7.5457 </r>
       <r>     6.1952     3.4370     7.7139 </r>
       <r>     6.2458     2.9150     7.9026 </r>
       <r>     6.2964     3.0277     8.0528 </r>
       <r>     6.3469     3.1715     8.2098 </r>
       <r>     6.3975     3.5427     8.3826 </r>
       <r>     6.4480     3.7684     8.5695 </r>
       <r>     6.4986     3.8827     8.7655 </r>
       <r>     6.5492     4.3970     8.9760 </r>
       <r>     6.5997     4.4324     9.2000 </r>
       <r>     6.6503     4.5797     9.4343 </r>
       <r>     6.7008     4.6922     9.6673 </r>
       <r>     6.7514     4.1760     9.8918 </r>
       <r>     6.8020     3.5370    10.0850 </r>
       <r>     6.8525     3.3197    10.2580 </r>
       <r>     6.9031     3.2841    10.4239 </r>
       <r>     6.9536     3.0245    10.5969 </r>
       <r>     7.0042     2.9635    10.7553 </r>
       <r>     7.0548     1.5657    10.8565 </r>
       <r>     7.1053     1.3984    10.9301 </r>
       <r>     7.1559     1.3517    11.0000 </r>
       <r>     7.2064     1.2996    11.0670 </r>
       <r>     7.2570     1.2560    11.1316 </r>
       <r>     7.3076     1.1632    11.1970 </r>
       <r>     7.3581     1.1134    11.2542 </r>
       <r>     7.4087     1.0821    11.3095 </r>
       <r>     7.4592     1.0735    11.3640 </r>
       <r>     7.5098     1.0700    11.4182 </r>
       <r>     7.5604     0.9890    11.4890 </r>
       <r>     7.6109     0.9670    11.5382 </r>
       <r>     7.6615     1.0407    11.5931 </r>
       <r>     7.7120     1.0660    11.6464 </r>
       <r>     7.7626     1.0932    11.7009 </r>
       <r>     7.8132     1.1210    11.7569 </r>
       <r>     7.8637     1.1492    11.8143 </r>
       <r>     7.9143     1.2725    11.8801 </r>
       <r>     7.9648     1.4006    11.9532 </r>
       <r>     8.0154     1.2895    12.0118 </r>
       <r>     8.0660     1.0553    12.0799 </r>
       <r>     8.1165     1.0839    12.1337 </r>
       <r>     8.1671     1.1456    12.1900 </r>
       <r>     8.2176     1.2290    12.2500 </r>
       <r>     8.2682     1.3360    12.3147 </r>
       <r>     8.3188     1.6366    12.3889 </r>
       <r>     8.3693     2.0782    12.4833 </r>
       <r>     8.4199     2.8764    12.6102 </r>
       <r>     8.4704     3.2797    12.7664 </r>
       <r>     8.5210     3.2492    12.9377 </r>
       <r>     8.5716     3.1718    13.0973 </r>
       <r>     8.6221     3.1933    13.2584 </r>
       <r>     8.6727     3.2421    13.4208 </r>
       <r>     8.7233     3.5937    13.5989 </r>
       <r>     8.7738     3.9599    13.7852 </r>
       <r>     8.8244     4.1430    13.9922 </r>
       <r>     8.8749     4.1857    14.2062 </r>
       <r>     8.9255     4.5639    14.4290 </r>
       <r>     8.9761     4.5953    14.6706 </r>
       <r>     9.0266     4.4966    14.8986 </r>
       <r>     9.0772     4.4444    15.1247 </r>
       <r>     9.1277     4.9440    15.3480 </r>
       <r>     9.1783     5.0263    15.6131 </r>
       <r>     9.2289     4.8333    15.8602 </r>
       <r>     9.2794     3.6672    16.0773 </r>
       <r>     9.3300     3.6099    16.2652 </r>
       <r>     9.3805     3.6539    16.4485 </r>
       <r>     9.4311     4.5863    16.6446 </r>
       <r>     9.4817     5.9053    16.8428 </r>
       <r>     9.5322     6.8851    17.1605 </r>
       <r>     9.5828    12.9603    17.6357 </r>
       <r>     9.6333     5.9881    18.0283 </r>
       <r>     9.6839     4.7018    18.2835 </r>
       <r>     9.7345     4.3704    18.5140 </r>
       <r>     9.7850     3.4237    18.7045 </r>
       <r>     9.8356     3.3839    18.8788 </r>
       <r>     9.8861     3.2189    19.0455 </r>
       <r>     9.9367     3.0496    19.2044 </r>
       <r>     9.9873     2.4979    19.3434 </r>
       <r>    10.0378     1.9230    19.4534 </r>
       <r>    10.0884     1.6602    19.5438 </r>
       <r>    10.1389     1.4651    19.6224 </r>
       <r>    10.1895     1.3115    19.6963 </r>
       <r>    10.2401     1.1503    19.7585 </r>
       <r>    10.2906     0.9881    19.8128 </r>
       <r>    10.3412     0.8034    19.8578 </r>
       <r>    10.3917     0.6528    19.8947 </r>
       <r>    10.4423     0.5453    19.9245 </r>
       <r>    10.4929     0.5812    19.9515 </r>
       <r>    10.5434     0.4072    19.9764 </r>
       <r>    10.5940     0.0377    19.9907 </r>
       <r>    10.6445     0.0312    19.9924 </r>
       <r>    10.6951     0.0270    19.9939 </r>
       <r>    10.7457     0.0231    19.9951 </r>
       <r>    10.7962     0.0196    19.9962 </r>
       <r>    10.8468     0.0163    19.9971 </r>
       <r>    10.8973     0.0133    19.9979 </r>
       <r>    10.9479     0.0107    19.9985 </r>
       <r>    10.9985     0.0083    19.9990 </r>
       <r>    11.0490     0.0062    19.9993 </r>
       <r>    11.0996     0.0044    19.9996 </r>
       <r>    11.1502     0.0030    19.9998 </r>
       <r>    11.2007     0.0018    19.9999 </r>
       <r>    11.2513     0.0009    20.0000 </r>
       <r>    11.3018     0.0003    20.0000 </r>
       <r>    11.3524     0.0000    20.0000 </r>
       <r>    11.4030     0.0000    20.0000 </r>
       <r>    11.4535     0.0000    20.0000 </r>
       <r>    11.5041     0.0000    20.0000 </r>
       <r>    11.5546     0.0000    20.0000 </r>
       <r>    11.6052     0.0000    20.0000 </r>
       <r>    11.6558     0.0000    20.0000 </r>
       <r>    11.7063     0.0000    20.0000 </r>
       <r>    11.7569     0.0000    20.0000 </r>
       <r>    11.8074     0.0000    20.0000 </r>
       <r>    11.8580     0.0000    20.0000 </r>
       <r>    11.9086     0.0000    20.0000 </r>
       <r>    11.9591     0.0000    20.0000 </r>
       <r>    12.0097     0.0000    20.0000 </r>
       <r>    12.0602     0.0000    20.0000 </r>
       <r>    12.1108     0.0000    20.0000 </r>
       <r>    12.1614     0.0000    20.0000 </r>
       <r>    12.2119     0.0000    20.0000 </r>
       <r>    12.2625     0.0000    20.0000 </r>
       <r>    12.3130     0.0000    20.0000 </r>
       <r>    12.3636     0.0000    20.0000 </r>
       <r>    12.4142     0.0000    20.0000 </r>
       <r>    12.4647     0.0000    20.0000 </r>
       <r>    12.5153     0.0000    20.0000 </r>
       <r>    12.5658     0.0000    20.0000 </r>
       <r>    12.6164     0.0000    20.0000 </r>
       <r>    12.6670     0.0000    20.0000 </r>
       <r>    12.7175     0.0000    20.0000 </r>
       <r>    12.7681     0.0000    20.0000 </r>
       <r>    12.8186     0.0000    20.0000 </r>
       <r>    12.8692     0.0000    20.0000 </r>
       <r>    12.9198     0.0000    20.0000 </r>
       <r>    12.9703     0.0000    20.0000 </r>
       <r>    13.0209     0.0000    20.0000 </r>
       <r>    13.0714     0.0000    20.0000 </r>
       <r>    13.1220     0.0000    20.0000 </r>
       <r>    13.1726     0.0000    20.0000 </r>
       <r>    13.2231     0.0000    20.0000 </r>
       <r>    13.2737     0.0000    20.0000 </r>
       <r>    13.3242     0.0000    20.0000 </r>
       <r>    13.3748     0.0000    20.0000 </r>
      </set>
     </set>
    </array>
   </total>
  </dos>
 </calculation>
 <structure name="finalpos" >
  <crystal>
   <varray name="basis" >
    <v>       2.80966518       0.00000000       0.00000000 </v>
    <v>       0.00000000       2.80966518       0.00000000 </v>
    <v>       0.00000000       0.00000000       2.80966518 </v>
   </varray>
   <i name="volume">     22.18011056 </i>
   <varray name="rec_basis" >
    <v>       0.35591429       0.00000000       0.00000000 </v>
    <v>       0.00000000       0.35591429       0.00000000 </v>
    <v>       0.00000000       0.00000000       0.35591429 </v>
   </varray>
  </crystal>
  <varray name="positions" >
   <v>       0.00000000       0.00000000       0.00000000 </v>
   <v>       0.50000000       0.50000000       0.50000000 </v>
  </varray>
 </structure>
</modeling>
