unknown system                          
           1
     2.357647    0.000000    0.000000
     0.000000    2.357647    0.000000
     0.000000    0.000000    2.357647
   Cr
   2
Direct configuration=     1
   0.00000000  0.00000000  0.00000000
   0.50000000  0.50000000  0.50000000
unknown system                          
           1
     4.377377    0.000000    0.000000
     0.000000    4.377377    0.000000
     0.000000    0.000000    4.377377
   Cr
   2
Direct configuration=     2
   0.00000000  0.00000000  0.00000000
   0.50000000  0.50000000  0.50000000
unknown system                          
           1
     2.694665    0.000000    0.000000
     0.000000    2.694665    0.000000
     0.000000    0.000000    2.694665
   Cr
   2
Direct configuration=     3
   0.00000000  0.00000000  0.00000000
   0.50000000  0.50000000  0.50000000
unknown system                          
           1
     2.754814    0.000000    0.000000
     0.000000    2.754814    0.000000
     0.000000    0.000000    2.754814
   Cr
   2
Direct configuration=     4
   0.00000000  0.00000000  0.00000000
   0.50000000  0.50000000  0.50000000
unknown system                          
           1
     2.805104    0.000000    0.000000
     0.000000    2.805104    0.000000
     0.000000    0.000000    2.805104
   Cr
   2
Direct configuration=     5
   0.00000000  0.00000000  0.00000000
   0.50000000  0.50000000  0.50000000
unknown system                          
           1
     2.809522    0.000000    0.000000
     0.000000    2.809522    0.000000
     0.000000    0.000000    2.809522
   Cr
   2
Direct configuration=     6
   0.00000000  0.00000000  0.00000000
   0.50000000  0.50000000  0.50000000
unknown system                          
           1
     2.809665    0.000000    0.000000
     0.000000    2.809665    0.000000
     0.000000    0.000000    2.809665
   Cr
   2
Direct configuration=     7
   0.00000000  0.00000000  0.00000000
   0.50000000  0.50000000  0.50000000
