   2   2   0   0
  0.6552486E+01  0.2357647E-09  0.2357647E-09  0.2357647E-09  0.5000000E-15
  1.000000000000000E-004
  CAR 
 unknown system                          
     23.41829287      4.38099720  301     16.10191163      1.00000000
      4.381  0.0000E+00  0.0000E+00
      4.444  0.0000E+00  0.0000E+00
      4.508  0.0000E+00  0.0000E+00
      4.571  0.0000E+00  0.0000E+00
      4.635  0.0000E+00  0.0000E+00
      4.698  0.0000E+00  0.0000E+00
      4.762  0.0000E+00  0.0000E+00
      4.825  0.0000E+00  0.0000E+00
      4.889  0.0000E+00  0.0000E+00
      4.952  0.0000E+00  0.0000E+00
      5.016  0.0000E+00  0.0000E+00
      5.079  0.0000E+00  0.0000E+00
      5.142  0.0000E+00  0.0000E+00
      5.206  0.0000E+00  0.0000E+00
      5.269  0.0000E+00  0.0000E+00
      5.333  0.0000E+00  0.0000E+00
      5.396  0.0000E+00  0.0000E+00
      5.460  0.0000E+00  0.0000E+00
      5.523  0.0000E+00  0.0000E+00
      5.587  0.0000E+00  0.0000E+00
      5.650  0.0000E+00  0.0000E+00
      5.714  0.0000E+00  0.0000E+00
      5.777  0.0000E+00  0.0000E+00
      5.841  0.0000E+00  0.0000E+00
      5.904  0.0000E+00  0.0000E+00
      5.967  0.0000E+00  0.0000E+00
      6.031  0.0000E+00  0.0000E+00
      6.094  0.0000E+00  0.0000E+00
      6.158  0.0000E+00  0.0000E+00
      6.221  0.0000E+00  0.0000E+00
      6.285  0.0000E+00  0.0000E+00
      6.348  0.0000E+00  0.0000E+00
      6.412  0.3961E-02  0.3226E-03
      6.475  0.5296E-02  0.6156E-03
      6.539  0.6772E-02  0.9977E-03
      6.602  0.8388E-02  0.1478E-02
      6.665  0.8464E-02  0.2065E-02
      6.729  0.9361E-02  0.2631E-02
      6.792  0.1028E-01  0.3254E-02
      6.856  0.1122E-01  0.3936E-02
      6.919  0.1218E-01  0.4678E-02
      6.983  0.1281E-01  0.5469E-02
      7.046  0.1354E-01  0.6305E-02
      7.110  0.1442E-01  0.7191E-02
      7.173  0.1532E-01  0.8135E-02
      7.237  0.1584E-01  0.9132E-02
      7.300  0.1649E-01  0.1016E-01
      7.364  0.1710E-01  0.1122E-01
      7.427  0.1768E-01  0.1233E-01
      7.490  0.1968E-01  0.1361E-01
      7.554  0.2070E-01  0.1489E-01
      7.617  0.2198E-01  0.1624E-01
      7.681  0.3417E-01  0.1846E-01
      7.744  0.3924E-01  0.2079E-01
      7.808  0.4474E-01  0.2345E-01
      7.871  0.5066E-01  0.2648E-01
      7.935  0.5687E-01  0.2989E-01
      7.998  0.6143E-01  0.3368E-01
      8.062  0.6465E-01  0.3766E-01
      8.125  0.6924E-01  0.4190E-01
      8.188  0.7411E-01  0.4645E-01
      8.252  0.7695E-01  0.5122E-01
      8.315  0.8169E-01  0.5624E-01
      8.379  0.8669E-01  0.6159E-01
      8.442  0.9186E-01  0.6725E-01
      8.506  0.9746E-01  0.7325E-01
      8.569  0.1040E+00  0.7964E-01
      8.633  0.1208E+00  0.8673E-01
      8.696  0.1226E+00  0.9505E-01
      8.760  0.1235E+00  0.1028E+00
      8.823  0.1270E+00  0.1107E+00
      8.886  0.1298E+00  0.1189E+00
      8.950  0.1322E+00  0.1272E+00
      9.013  0.1341E+00  0.1356E+00
      9.077  0.1360E+00  0.1442E+00
      9.140  0.1393E+00  0.1529E+00
      9.204  0.1464E+00  0.1620E+00
      9.267  0.1503E+00  0.1714E+00
      9.331  0.1538E+00  0.1811E+00
      9.394  0.1574E+00  0.1909E+00
      9.458  0.1622E+00  0.2011E+00
      9.521  0.1674E+00  0.2115E+00
      9.585  0.1833E+00  0.2226E+00
      9.648  0.1737E+00  0.2340E+00
      9.711  0.1820E+00  0.2453E+00
      9.775  0.1925E+00  0.2572E+00
      9.838  0.2011E+00  0.2697E+00
      9.902  0.2222E+00  0.2839E+00
      9.965  0.2132E+00  0.2978E+00
     10.029  0.1973E+00  0.3108E+00
     10.092  0.1792E+00  0.3228E+00
     10.156  0.1687E+00  0.3339E+00
     10.219  0.1483E+00  0.3439E+00
     10.283  0.1349E+00  0.3529E+00
     10.346  0.1239E+00  0.3611E+00
     10.409  0.1107E+00  0.3687E+00
     10.473  0.1413E+00  0.3777E+00
     10.536  0.1566E+00  0.3878E+00
     10.600  0.1782E+00  0.3984E+00
     10.663  0.1812E+00  0.4096E+00
     10.727  0.1870E+00  0.4215E+00
     10.790  0.1867E+00  0.4332E+00
     10.854  0.2060E+00  0.4456E+00
     10.917  0.2331E+00  0.4595E+00
     10.981  0.2556E+00  0.4750E+00
     11.044  0.2851E+00  0.4921E+00
     11.108  0.2712E+00  0.5105E+00
     11.171  0.2478E+00  0.5269E+00
     11.234  0.2323E+00  0.5424E+00
     11.298  0.2157E+00  0.5568E+00
     11.361  0.2062E+00  0.5705E+00
     11.425  0.1854E+00  0.5832E+00
     11.488  0.1756E+00  0.5946E+00
     11.552  0.1462E+00  0.6041E+00
     11.615  0.1386E+00  0.6132E+00
     11.679  0.1286E+00  0.6219E+00
     11.742  0.1299E+00  0.6304E+00
     11.806  0.1267E+00  0.6385E+00
     11.869  0.1286E+00  0.6467E+00
     11.932  0.1238E+00  0.6548E+00
     11.996  0.1178E+00  0.6624E+00
     12.059  0.1086E+00  0.6696E+00
     12.123  0.9796E-01  0.6762E+00
     12.186  0.9002E-01  0.6822E+00
     12.250  0.8169E-01  0.6877E+00
     12.313  0.6552E-01  0.6926E+00
     12.377  0.5465E-01  0.6964E+00
     12.440  0.5386E-01  0.6999E+00
     12.504  0.5353E-01  0.7035E+00
     12.567  0.5485E-01  0.7069E+00
     12.630  0.5703E-01  0.7105E+00
     12.694  0.6066E-01  0.7142E+00
     12.757  0.6645E-01  0.7182E+00
     12.821  0.7185E-01  0.7227E+00
     12.884  0.7446E-01  0.7273E+00
     12.948  0.7980E-01  0.7324E+00
     13.011  0.8603E-01  0.7376E+00
     13.075  0.9363E-01  0.7433E+00
     13.138  0.1185E+00  0.7497E+00
     13.202  0.1286E+00  0.7578E+00
     13.265  0.1382E+00  0.7662E+00
     13.329  0.1483E+00  0.7753E+00
     13.392  0.1584E+00  0.7851E+00
     13.455  0.1919E+00  0.7961E+00
     13.519  0.2696E+00  0.8109E+00
     13.582  0.2376E+00  0.8274E+00
     13.646  0.2027E+00  0.8418E+00
     13.709  0.1692E+00  0.8543E+00
     13.773  0.1476E+00  0.8641E+00
     13.836  0.1560E+00  0.8736E+00
     13.900  0.1818E+00  0.8843E+00
     13.963  0.1544E+00  0.8958E+00
     14.027  0.1440E+00  0.9053E+00
     14.090  0.1334E+00  0.9140E+00
     14.153  0.1226E+00  0.9219E+00
     14.217  0.1181E+00  0.9296E+00
     14.280  0.1122E+00  0.9369E+00
     14.344  0.1078E+00  0.9439E+00
     14.407  0.9785E-01  0.9508E+00
     14.471  0.9264E-01  0.9568E+00
     14.534  0.9150E-01  0.9627E+00
     14.598  0.9434E-01  0.9687E+00
     14.661  0.9247E-01  0.9746E+00
     14.725  0.9065E-01  0.9804E+00
     14.788  0.8889E-01  0.9861E+00
     14.852  0.7736E-01  0.9916E+00
     14.915  0.7564E-01  0.9965E+00
     14.978  0.7428E-01  0.1001E+01
     15.042  0.7585E-01  0.1006E+01
     15.105  0.7553E-01  0.1011E+01
     15.169  0.7534E-01  0.1016E+01
     15.232  0.7251E-01  0.1021E+01
     15.296  0.7184E-01  0.1025E+01
     15.359  0.7117E-01  0.1030E+01
     15.423  0.7074E-01  0.1034E+01
     15.486  0.7266E-01  0.1039E+01
     15.550  0.8073E-01  0.1044E+01
     15.613  0.8713E-01  0.1049E+01
     15.676  0.1124E+00  0.1055E+01
     15.740  0.1105E+00  0.1062E+01
     15.803  0.8717E-01  0.1069E+01
     15.867  0.7777E-01  0.1074E+01
     15.930  0.7324E-01  0.1079E+01
     15.994  0.7051E-01  0.1083E+01
     16.057  0.7085E-01  0.1088E+01
     16.121  0.7252E-01  0.1092E+01
     16.184  0.7459E-01  0.1097E+01
     16.248  0.7735E-01  0.1102E+01
     16.311  0.8125E-01  0.1107E+01
     16.374  0.8599E-01  0.1112E+01
     16.438  0.9179E-01  0.1118E+01
     16.501  0.1155E+00  0.1124E+01
     16.565  0.1370E+00  0.1132E+01
     16.628  0.1556E+00  0.1141E+01
     16.692  0.1650E+00  0.1152E+01
     16.755  0.1713E+00  0.1162E+01
     16.819  0.1670E+00  0.1173E+01
     16.882  0.1621E+00  0.1184E+01
     16.946  0.1605E+00  0.1194E+01
     17.009  0.1611E+00  0.1204E+01
     17.073  0.1632E+00  0.1214E+01
     17.136  0.1769E+00  0.1225E+01
     17.199  0.1646E+00  0.1236E+01
     17.263  0.1657E+00  0.1247E+01
     17.326  0.1896E+00  0.1257E+01
     17.390  0.1721E+00  0.1269E+01
     17.453  0.1774E+00  0.1280E+01
     17.517  0.1781E+00  0.1291E+01
     17.580  0.1853E+00  0.1302E+01
     17.644  0.2148E+00  0.1315E+01
     17.707  0.2017E+00  0.1328E+01
     17.771  0.1995E+00  0.1341E+01
     17.834  0.1936E+00  0.1354E+01
     17.897  0.2029E+00  0.1367E+01
     17.961  0.2079E+00  0.1380E+01
     18.024  0.2095E+00  0.1393E+01
     18.088  0.2134E+00  0.1407E+01
     18.151  0.2044E+00  0.1420E+01
     18.215  0.2091E+00  0.1433E+01
     18.278  0.2016E+00  0.1447E+01
     18.342  0.1927E+00  0.1460E+01
     18.405  0.1869E+00  0.1472E+01
     18.469  0.1811E+00  0.1484E+01
     18.532  0.1715E+00  0.1495E+01
     18.596  0.1688E+00  0.1506E+01
     18.659  0.1703E+00  0.1516E+01
     18.722  0.1721E+00  0.1527E+01
     18.786  0.2381E+00  0.1539E+01
     18.849  0.2274E+00  0.1554E+01
     18.913  0.2130E+00  0.1568E+01
     18.976  0.2546E+00  0.1583E+01
     19.040  0.4150E+00  0.1604E+01
     19.103  0.2475E+00  0.1628E+01
     19.167  0.2183E+00  0.1642E+01
     19.230  0.1815E+00  0.1655E+01
     19.294  0.1665E+00  0.1666E+01
     19.357  0.1613E+00  0.1676E+01
     19.420  0.1493E+00  0.1687E+01
     19.484  0.1366E+00  0.1696E+01
     19.547  0.1258E+00  0.1704E+01
     19.611  0.1238E+00  0.1712E+01
     19.674  0.1311E+00  0.1720E+01
     19.738  0.1298E+00  0.1728E+01
     19.801  0.1317E+00  0.1737E+01
     19.865  0.1442E+00  0.1746E+01
     19.928  0.1210E+00  0.1754E+01
     19.992  0.1109E+00  0.1762E+01
     20.055  0.9968E-01  0.1768E+01
     20.118  0.9000E-01  0.1774E+01
     20.182  0.1166E+00  0.1780E+01
     20.245  0.6091E-01  0.1785E+01
     20.309  0.5380E-01  0.1789E+01
     20.372  0.4834E-01  0.1792E+01
     20.436  0.4394E-01  0.1795E+01
     20.499  0.3990E-01  0.1798E+01
     20.563  0.3557E-01  0.1800E+01
     20.626  0.3232E-01  0.1802E+01
     20.690  0.2943E-01  0.1804E+01
     20.753  0.2484E-01  0.1806E+01
     20.817  0.2205E-01  0.1808E+01
     20.880  0.2003E-01  0.1809E+01
     20.943  0.2009E-01  0.1810E+01
     21.007  0.2421E-01  0.1812E+01
     21.070  0.2055E-01  0.1813E+01
     21.134  0.1794E-01  0.1814E+01
     21.197  0.1553E-01  0.1816E+01
     21.261  0.1332E-01  0.1816E+01
     21.324  0.1130E-01  0.1817E+01
     21.388  0.9490E-02  0.1818E+01
     21.451  0.0000E+00  0.1818E+01
     21.515  0.0000E+00  0.1818E+01
     21.578  0.0000E+00  0.1818E+01
     21.641  0.0000E+00  0.1818E+01
     21.705  0.0000E+00  0.1818E+01
     21.768  0.0000E+00  0.1818E+01
     21.832  0.0000E+00  0.1818E+01
     21.895  0.0000E+00  0.1818E+01
     21.959  0.0000E+00  0.1818E+01
     22.022  0.0000E+00  0.1818E+01
     22.086  0.0000E+00  0.1818E+01
     22.149  0.0000E+00  0.1818E+01
     22.213  0.0000E+00  0.1818E+01
     22.276  0.0000E+00  0.1818E+01
     22.340  0.0000E+00  0.1818E+01
     22.403  0.0000E+00  0.1818E+01
     22.466  0.0000E+00  0.1818E+01
     22.530  0.0000E+00  0.1818E+01
     22.593  0.0000E+00  0.1818E+01
     22.657  0.0000E+00  0.1818E+01
     22.720  0.0000E+00  0.1818E+01
     22.784  0.0000E+00  0.1818E+01
     22.847  0.0000E+00  0.1818E+01
     22.911  0.0000E+00  0.1818E+01
     22.974  0.0000E+00  0.1818E+01
     23.038  0.0000E+00  0.1818E+01
     23.101  0.0000E+00  0.1818E+01
     23.164  0.0000E+00  0.1818E+01
     23.228  0.0000E+00  0.1818E+01
     23.291  0.0000E+00  0.1818E+01
     23.355  0.0000E+00  0.1818E+01
     23.418  0.0000E+00  0.1818E+01
