    2    2   11    1
  0.6552486E+01  0.2357647E-09  0.2357647E-09  0.2357647E-09  0.5000000E-15
  1.000000000000000E-004
  CAR 
 unknown system                          
     12     56     10
 
  0.4166667E-01  0.4166667E-01  0.4166667E-01  0.4629630E-02
    1        6.380997   1.000000
    2        6.380997   1.000000
    3        7.463475   1.000000
    4       13.720943   1.000000
    5       13.720943   1.000000
    6       14.003826   1.000000
    7       17.842377   0.000000
    8       17.842377   0.000000
    9       20.551572   0.000000
   10       21.024422   0.000000
 
  0.1250000E+00  0.4166667E-01  0.4166667E-01  0.1388889E-01
    1        6.665434   1.000000
    2        6.931460   1.000000
    3        7.970727   1.000000
    4       13.561612   1.000000
    5       13.675429   1.000000
    6       14.352793   1.000000
    7       17.314912   0.000000
    8       18.072259   0.000000
    9       19.595196   0.000000
   10       20.243899   0.000000
 
  0.2083333E+00  0.4166667E-01  0.4166667E-01  0.1388889E-01
    1        7.227237   1.000000
    2        7.931753   1.000000
    3        8.871350   1.000000
    4       13.503446   1.000000
    5       13.620889   1.000000
    6       14.844473   1.000000
    7       16.361858   0.087217
    8       18.352814   0.000000
    9       18.521059   0.000000
   10       19.031719   0.000000
 
  0.2916667E+00  0.4166667E-01  0.4166667E-01  0.1388889E-01
    1        8.051099   1.000000
    2        9.181890   1.000000
    3        9.936960   1.000000
    4       13.548911   1.000000
    5       13.612779   1.000000
    6       15.210886   1.000000
    7       15.484141   1.047050
    8       17.069871   0.000000
    9       17.722151   0.000000
   10       19.192367   0.000000
 
  0.3750000E+00  0.4166667E-01  0.4166667E-01  0.1388889E-01
    1        9.110461   1.000000
    2       10.387896   1.000000
    3       10.858470   1.000000
    4       13.003244   1.000000
    5       13.927392   1.000000
    6       14.550849   1.000000
    7       15.925350   0.994609
    8       16.254564   0.155209
    9       16.515981   0.000000
   10       18.967409   0.000000
 
  0.4583333E+00  0.4166667E-01  0.4166667E-01  0.1388889E-01
    1       10.362719   1.000000
    2       11.197692   1.000000
    3       11.347657   1.000000
    4       11.730089   1.000000
    5       14.400085   1.000000
    6       14.823489   1.000000
    7       15.032639   1.000000
    8       15.526090   1.069368
    9       17.119309   0.000000
   10       18.040026   0.000000
 
  0.1250000E+00  0.1250000E+00  0.4166667E-01  0.1388889E-01
    1        7.051525   1.000000
    2        7.355209   1.000000
    3        8.414100   1.000000
    4       13.188690   1.000000
    5       13.556403   1.000000
    6       14.949491   1.000000
    7       17.350116   0.000000
    8       17.920136   0.000000
    9       18.429747   0.000000
   10       19.701244   0.000000
 
  0.2083333E+00  0.1250000E+00  0.4166667E-01  0.2777778E-01
    1        7.599396   1.000000
    2        8.311429   1.000000
    3        9.152564   1.000000
    4       12.897953   1.000000
    5       13.480459   1.000000
    6       15.671263   1.000000
    7       16.785948  -0.024666
    8       17.109461   0.000000
    9       18.284280   0.000000
   10       18.600115   0.000000
 
  0.2916667E+00  0.1250000E+00  0.4166667E-01  0.2777778E-01
    1        8.337238   1.000000
    2        9.533674   1.000000
    3        9.910908   1.000000
    4       12.776939   1.000000
    5       13.477167   1.000000
    6       15.849338   1.000000
    7       16.012007   0.471629
    8       16.494171   0.000000
    9       17.439257   0.000000
   10       18.974415   0.000000
 
  0.3750000E+00  0.1250000E+00  0.4166667E-01  0.2777778E-01
    1        9.228769   1.000000
    2       10.435919   1.000000
    3       10.687611   1.000000
    4       12.670329   1.000000
    5       13.409187   1.000000
    6       14.797637   1.000000
    7       15.609656   0.972975
    8       16.487682  -0.000373
    9       17.346437   0.000000
   10       19.876508   0.000000
 
  0.4583333E+00  0.1250000E+00  0.4166667E-01  0.2777778E-01
    1       10.117879   1.000000
    2       10.585113   1.000000
    3       11.490149   1.000000
    4       12.127982   1.000000
    5       13.552907   1.000000
    6       14.035388   1.000000
    7       15.673152   0.960933
    8       15.918294   0.622382
    9       18.196790   0.000000
   10       19.050551   0.000000
 
  0.2083333E+00  0.2083333E+00  0.4166667E-01  0.1388889E-01
    1        8.091212   1.000000
    2        9.193423   1.000000
    3        9.482498   1.000000
    4       12.352687   1.000000
    5       13.624759   1.000000
    6       15.767007   1.000000
    7       16.625682  -0.004104
    8       17.175352   0.000000
    9       17.709486   0.000000
   10       18.088989   0.000000
 
  0.2916667E+00  0.2083333E+00  0.4166667E-01  0.2777778E-01
    1        8.598270   1.000000
    2        9.622429   1.000000
    3       10.413391   1.000000
    4       12.023078   1.000000
    5       14.090485   1.000000
    6       14.540785   1.000000
    7       16.884290  -0.030836
    8       16.920335   0.000000
    9       17.643306   0.000000
   10       18.596847   0.000000
 
  0.3750000E+00  0.2083333E+00  0.4166667E-01  0.2777778E-01
    1        9.064502   1.000000
    2        9.606710   1.000000
    3       11.615676   1.000000
    4       11.941986   1.000000
    5       13.565165   1.000000
    6       14.228181   1.000000
    7       16.453293   0.039183
    8       16.773259  -0.008608
    9       18.540660   0.000000
   10       19.721526   0.000000
 
  0.4583333E+00  0.2083333E+00  0.4166667E-01  0.2777778E-01
    1        9.384822   1.000000
    2        9.537399   1.000000
    3       12.105250   1.000000
    4       12.312261   1.000000
    5       13.151232   1.000000
    6       13.717554   1.000000
    7       16.515101   0.034385
    8       16.740738  -0.035283
    9       19.350089   0.000000
   10       20.146365   0.000000
 
  0.2916667E+00  0.2916667E+00  0.4166667E-01  0.1388889E-01
    1        8.697678   1.000000
    2        9.181187   1.000000
    3       11.487480   1.000000
    4       11.707904   1.000000
    5       13.360260   1.000000
    6       15.252778   1.005395
    7       16.537237   0.000000
    8       17.540826   0.000000
    9       18.359129   0.000000
   10       18.782916   0.000000
 
  0.3750000E+00  0.2916667E+00  0.4166667E-01  0.2777778E-01
    1        8.672444   1.000000
    2        8.817613   1.000000
    3       11.236013   1.000000
    4       12.368377   1.000000
    5       13.126929   1.000252
    6       15.857293   0.861393
    7       16.639888   0.000000
    8       17.703380   0.000000
    9       19.013228   0.000000
   10       19.950263   0.000000
 
  0.4583333E+00  0.2916667E+00  0.4166667E-01  0.2777778E-01
    1        8.611097   1.000000
    2        8.631565   1.000000
    3       11.300282   1.000000
    4       11.686197   1.000000
    5       14.340496   1.019876
    6       15.310743   0.944717
    7       17.136876   0.000000
    8       17.633396   0.000000
    9       20.171537   0.000000
   10       21.004883   0.000000
 
  0.3750000E+00  0.3750000E+00  0.4166667E-01  0.1388889E-01
    1        8.258553   1.000000
    2        8.267068   1.000000
    3       10.804440   1.000000
    4       11.530365   1.000000
    5       14.676047   1.030227
    6       17.084453  -0.014664
    7       17.482588   0.000000
    8       18.350376   0.000000
    9       18.679062   0.000000
   10       20.911364   0.000000
 
  0.4583333E+00  0.3750000E+00  0.4166667E-01  0.2777778E-01
    1        7.987139   1.000000
    2        8.005563   1.000000
    3       10.703816   1.000000
    4       10.950615   1.000000
    5       16.114592   0.625833
    6       17.193579  -0.010741
    7       17.696370   0.000000
    8       18.234183   0.000000
    9       20.204293   0.000000
   10       21.418293   0.000000
 
  0.4583333E+00  0.4583333E+00  0.4166667E-01  0.1388889E-01
    1        7.660623   1.000000
    2        7.671483   1.000000
    3       10.432729   1.000000
    4       10.516869   1.000000
    5       17.823235  -0.079652
    6       18.113673   0.000000
    7       18.221964   0.000000
    8       18.909291   0.000000
    9       19.829729   0.000000
   10       20.986343   0.000000
 
  0.1250000E+00  0.1250000E+00  0.1250000E+00  0.4629630E-02
    1        7.598561   1.000000
    2        7.598561   1.000000
    3        8.847469   1.000000
    4       13.052829   1.000000
    5       13.052829   1.000000
    6       15.676217   1.000000
    7       17.128980   0.000000
    8       17.621839   0.000000
    9       17.621839   0.000000
   10       20.386680   0.000000
 
  0.2083333E+00  0.1250000E+00  0.1250000E+00  0.1388889E-01
    1        8.073295   1.000000
    2        8.581121   1.000000
    3        9.532183   1.000000
    4       12.739633   1.000000
    5       12.817256   1.000000
    6       15.783504   1.000000
    7       16.575423  -0.002635
    8       17.080891   0.000000
    9       18.117983   0.000000
   10       19.227445   0.000000
 
  0.2916667E+00  0.1250000E+00  0.1250000E+00  0.1388889E-01
    1        8.752643   1.000000
    2        9.755686   1.000000
    3       10.120948   1.000000
    4       12.500621   1.000000
    5       12.906435   1.000000
    6       14.629650   1.000000
    7       16.435269   0.033628
    8       17.528780   0.000000
    9       18.007250   0.000000
   10       18.834851   0.000000
 
  0.3750000E+00  0.1250000E+00  0.1250000E+00  0.1388889E-01
    1        9.589460   1.000000
    2       10.453933   1.000000
    3       10.688123   1.000000
    4       12.048399   1.000000
    5       13.454008   1.000000
    6       13.932409   1.000000
    7       15.924714   0.553055
    8       16.940258  -0.025215
    9       18.312401   0.000000
   10       19.982375   0.000000
 
  0.4583333E+00  0.1250000E+00  0.1250000E+00  0.1388889E-01
    1       10.504174   1.000000
    2       10.714205   1.000000
    3       10.923077   1.000000
    4       11.371218   1.000000
    5       13.856236   1.000000
    6       13.858200   1.000000
    7       15.806133   0.735052
    8       16.168531   0.167414
    9       18.864619   0.000000
   10       19.405834   0.000000
 
  0.2083333E+00  0.2083333E+00  0.1250000E+00  0.1388889E-01
    1        8.651665   1.000000
    2        9.353512   1.000000
    3        9.996089   1.000000
    4       12.190685   1.000000
    5       12.751084   1.000000
    6       14.464889   1.000000
    7       17.379507  -0.001387
    8       17.683162   0.000000
    9       18.004419   0.000000
   10       18.749700   0.000000
 
  0.2916667E+00  0.2083333E+00  0.1250000E+00  0.2777778E-01
    1        9.154579   1.000000
    2       10.098244   1.000000
    3       10.488334   1.000000
    4       11.869048   1.000000
    5       13.178680   1.000000
    6       13.430372   1.000000
    7       17.107742  -0.015760
    8       17.826878   0.000000
    9       18.442154   0.000000
   10       18.917317   0.000000
 
  0.3750000E+00  0.2083333E+00  0.1250000E+00  0.2777778E-01
    1        9.603854   1.000000
    2        9.970734   1.000000
    3       11.264907   1.000000
    4       11.659615   1.000000
    5       13.118243   1.000000
    6       13.786168   1.000000
    7       16.767511  -0.025531
    8       17.085794  -0.002929
    9       18.955500   0.000000
   10       20.343573   0.000000
 
  0.4583333E+00  0.2083333E+00  0.1250000E+00  0.2777778E-01
    1        9.851774   1.000000
    2        9.899586   1.000000
    3       11.376446   1.000000
    4       11.488783   1.000000
    5       13.605436   1.000000
    6       13.953991   1.000000
    7       16.649945  -0.011854
    8       16.719138  -0.014648
    9       19.402805   0.000000
   10       19.881316   0.000000
 
  0.2916667E+00  0.2916667E+00  0.1250000E+00  0.1388889E-01
    1        9.258683   1.000000
    2        9.710002   1.000000
    3       11.376094   1.000000
    4       11.737274   1.000000
    5       12.485569   1.000000
    6       14.155328   1.014922
    7       17.378856   0.000000
    8       17.626287   0.000000
    9       18.377168   0.000000
   10       20.110531   0.000000
 
  0.3750000E+00  0.2916667E+00  0.1250000E+00  0.2777778E-01
    1        9.179139   1.000000
    2        9.304548   1.000000
    3       11.137304   1.000000
    4       11.768892   1.000000
    5       13.175429   1.000006
    6       15.032213   1.016767
    7       17.181495   0.000000
    8       17.587706   0.000000
    9       18.858627   0.000000
   10       20.699790   0.000000
 
  0.4583333E+00  0.2916667E+00  0.1250000E+00  0.2777778E-01
    1        9.065593   1.000000
    2        9.079824   1.000000
    3       11.139708   1.000000
    4       11.355329   1.000000
    5       14.336755   1.000889
    6       15.057712   1.009928
    7       17.323396   0.000000
    8       17.519591   0.000000
    9       19.558093   0.000000
   10       20.243118   0.000000
 
  0.3750000E+00  0.3750000E+00  0.1250000E+00  0.1388889E-01
    1        8.744233   1.000000
    2        8.778466   1.000000
    3       10.764948   1.000000
    4       11.311837   1.000000
    5       14.507047   1.018853
    6       16.420132   0.473229
    7       17.454500   0.000000
    8       18.074040   0.000000
    9       18.714897   0.000000
   10       20.729224   0.000000
 
  0.4583333E+00  0.3750000E+00  0.1250000E+00  0.2777778E-01
    1        8.489230   1.000000
    2        8.495263   1.000000
    3       10.676095   1.000000
    4       10.878521   1.000000
    5       15.831906   0.847115
    6       16.697879   0.183461
    7       17.855212   0.000000
    8       18.126864   0.000000
    9       19.344507   0.000000
   10       20.264852   0.000000
 
  0.4583333E+00  0.4583333E+00  0.1250000E+00  0.1388889E-01
    1        8.190179   1.000000
    2        8.192469   1.000000
    3       10.440660   1.000000
    4       10.517500   1.000000
    5       17.330944  -0.082529
    6       18.063318  -0.057517
    7       18.234757   0.000000
    8       18.382700   0.000000
    9       18.933873   0.000000
   10       19.736427   0.000000
 
  0.2083333E+00  0.2083333E+00  0.2083333E+00  0.4629630E-02
    1        9.652714   1.000000
    2        9.652714   1.000000
    3       10.794971   1.000000
    4       11.932936   1.000000
    5       11.932936   1.000000
    6       13.175431   1.000000
    7       17.816033   0.000000
    8       17.816033   0.000000
    9       18.955298   0.000000
   10       19.541362   0.000000
 
  0.2916667E+00  0.2083333E+00  0.2083333E+00  0.1388889E-01
    1       10.048179   1.000000
    2       10.701670   1.000000
    3       10.708511   1.000000
    4       11.658972   1.000000
    5       12.315296   1.000000
    6       12.394548   1.000000
    7       17.534085  -0.001243
    8       18.385779   0.000000
    9       18.479155   0.000000
   10       19.919671   0.000000
 
  0.3750000E+00  0.2083333E+00  0.2083333E+00  0.1388889E-01
    1       10.255924   1.000000
    2       10.474392   1.000000
    3       10.664608   1.000000
    4       11.408513   1.000000
    5       12.827016   1.000000
    6       13.385423   1.000000
    7       17.235080  -0.008502
    8       17.647859   0.000000
    9       18.954616   0.000000
   10       19.925687   0.000000
 
  0.4583333E+00  0.2083333E+00  0.2083333E+00  0.1388889E-01
    1       10.081358   1.000000
    2       10.239155   1.000000
    3       10.858062   1.000000
    4       11.160662   1.000000
    5       13.689958   1.000000
    6       13.920685   1.000000
    7       17.060548  -0.015103
    8       17.167378   0.000000
    9       19.386510   0.000000
   10       19.704677   0.000000
 
  0.2916667E+00  0.2916667E+00  0.2083333E+00  0.1388889E-01
    1       10.252031   1.000000
    2       10.607634   1.000000
    3       11.220165   1.000000
    4       11.528103   1.000000
    5       11.765073   1.000000
    6       12.969369   1.001060
    7       17.915279   0.000000
    8       18.286397   0.000000
    9       18.377258   0.000000
   10       19.814667   0.000000
 
  0.3750000E+00  0.2916667E+00  0.2083333E+00  0.2777778E-01
    1        9.937139   1.000000
    2       10.064627   1.000000
    3       11.060777   1.000000
    4       11.253935   1.000000
    5       13.080402   1.000000
    6       13.951489   1.009973
    7       17.836625   0.000000
    8       17.874878   0.000000
    9       18.813178   0.000000
   10       19.836593   0.000000
 
  0.4583333E+00  0.2916667E+00  0.2083333E+00  0.2777778E-01
    1        9.685443   1.000000
    2        9.718033   1.000000
    3       11.056885   1.000000
    4       11.133643   1.000000
    5       14.098560   1.000000
    6       14.434661   1.018554
    7       17.698408   0.000000
    8       17.711480   0.000000
    9       19.280847   0.000000
   10       19.640617   0.000000
 
  0.3750000E+00  0.3750000E+00  0.2083333E+00  0.1388889E-01
    1        9.459242   1.000000
    2        9.686358   1.000000
    3       10.740530   1.000000
    4       11.210229   1.000000
    5       14.126499   1.012326
    6       14.999107   1.015386
    7       17.998589   0.000000
    8       18.245790   0.000000
    9       18.764929   0.000000
   10       19.787006   0.000000
 
  0.4583333E+00  0.3750000E+00  0.2083333E+00  0.2777778E-01
    1        9.263258   1.000000
    2        9.361977   1.000000
    3       10.712025   1.000000
    4       10.918152   1.000000
    5       15.165527   1.007062
    6       15.558690   0.915102
    7       18.155346   0.000000
    8       18.255718   0.000000
    9       19.091655   0.000000
   10       19.516772   0.000000
 
  0.4583333E+00  0.4583333E+00  0.2083333E+00  0.1388889E-01
    1        9.094622   1.000000
    2        9.146347   1.000000
    3       10.502497   1.000000
    4       10.600826   1.000000
    5       16.207758   0.648953
    6       16.425502   0.388896
    7       18.446898   0.000000
    8       18.505470   0.000000
    9       18.975232   0.000000
   10       19.217722   0.000000
 
  0.2916667E+00  0.2916667E+00  0.2916667E+00  0.4629630E-02
    1       10.533375   1.000000
    2       11.108854   1.000000
    3       11.108854   1.000000
    4       11.738997   1.000000
    5       11.738997   1.000000
    6       12.569203   1.000000
    7       18.325529   0.000000
    8       18.325529   0.000000
    9       18.949168   0.000000
   10       18.949168   0.000000
 
  0.3750000E+00  0.2916667E+00  0.2916667E+00  0.1388889E-01
    1       10.052308   1.000000
    2       10.544736   1.000000
    3       11.105362   1.000000
    4       11.619249   1.000000
    5       12.986273   1.000000
    6       13.409798   1.000000
    7       18.224964   0.000000
    8       18.386108   0.000000
    9       18.770219   0.000000
   10       19.285945   0.000000
 
  0.4583333E+00  0.2916667E+00  0.2916667E+00  0.1388889E-01
    1        9.875820   1.000000
    2       10.050863   1.000000
    3       11.223974   1.000000
    4       11.422848   1.000000
    5       13.868442   1.000000
    6       14.014987   1.000000
    7       18.130125   0.000000
    8       18.142538   0.000000
    9       19.135486   0.000000
   10       19.326218   0.000000
 
  0.3750000E+00  0.3750000E+00  0.2916667E+00  0.1388889E-01
    1        9.849371   1.000000
    2       10.658730   1.000000
    3       10.809147   1.000000
    4       11.783048   1.000000
    5       13.522809   1.000171
    6       13.871868   1.002084
    7       18.518071   0.000000
    8       18.521815   0.000000
    9       18.802167   0.000000
   10       19.180047   0.000000
 
  0.4583333E+00  0.3750000E+00  0.2916667E+00  0.2777778E-01
    1        9.875102   1.000000
    2       10.187575   1.000000
    3       11.027105   1.000000
    4       11.412668   1.000000
    5       14.254612   1.002783
    6       14.386269   1.009852
    7       18.507628   0.000000
    8       18.528751   0.000000
    9       19.033363   0.000000
   10       19.176412   0.000000
 
  0.4583333E+00  0.4583333E+00  0.2916667E+00  0.1388889E-01
    1       10.036858   1.000000
    2       10.300725   1.000000
    3       10.686562   1.000000
    4       10.984730   1.000000
    5       14.855796   1.022655
    6       14.913188   1.028151
    7       18.700064   0.000000
    8       18.721498   0.000000
    9       19.020850   0.000000
   10       19.088571   0.000000
 
  0.3750000E+00  0.3750000E+00  0.3750000E+00  0.4629630E-02
    1        9.978485   1.000000
    2       11.036661   1.000000
    3       11.036661   1.000000
    4       12.785736   1.000000
    5       12.785736   1.000000
    6       13.490124   1.000000
    7       18.811262   0.000000
    8       18.811262   0.000000
    9       18.891645   0.000000
   10       18.891645   0.000000
 
  0.4583333E+00  0.3750000E+00  0.3750000E+00  0.1388889E-01
    1       10.232411   1.000000
    2       10.668237   1.000000
    3       11.456149   1.000000
    4       12.058766   1.000000
    5       13.528075   1.000000
    6       13.685352   1.000000
    7       18.799357   0.000000
    8       18.802136   0.000000
    9       19.022550   0.000000
   10       19.063679   0.000000
 
  0.4583333E+00  0.4583333E+00  0.3750000E+00  0.1388889E-01
    1       10.645403   1.000000
    2       11.056954   1.000000
    3       11.310792   1.000000
    4       11.810654   1.000000
    5       13.584379   1.000000
    6       13.663501   1.000000
    7       18.933593   0.000000
    8       18.936088   0.000000
    9       19.057949   0.000000
   10       19.071952   0.000000
 
  0.4583333E+00  0.4583333E+00  0.4583333E+00  0.4629630E-02
    1       11.202857   1.000000
    2       11.656706   1.000000
    3       11.656706   1.000000
    4       12.503444   1.000000
    5       12.503444   1.000000
    6       12.889438   1.000000
    7       19.077748   0.000000
    8       19.077748   0.000000
    9       19.078946   0.000000
   10       19.078946   0.000000
