       N       E                     dE             d eps       ncg     rms          rms(c)
DAV:   1     0.545021823031E+02    0.54502E+02   -0.36816E+03  1144   0.107E+03
DAV:   2    -0.898139746816E+01   -0.63484E+02   -0.59267E+02  1154   0.245E+02
DAV:   3    -0.118523404618E+02   -0.28709E+01   -0.27516E+01  1404   0.659E+01
DAV:   4    -0.119269206134E+02   -0.74580E-01   -0.71346E-01  1352   0.948E+00
DAV:   5    -0.119277019052E+02   -0.78129E-03   -0.75983E-03  1366   0.909E-01    0.411E+01
DAV:   6    -0.109756160018E+02    0.95209E+00   -0.53237E-01  1308   0.149E+01    0.202E+01
DAV:   7    -0.105620076544E+02    0.41361E+00   -0.32979E-01  1402   0.986E+00    0.188E+00
DAV:   8    -0.105458501979E+02    0.16157E-01   -0.29863E-02  1132   0.357E+00    0.307E-01
DAV:   9    -0.105461972316E+02   -0.34703E-03   -0.29324E-04  1630   0.243E-01    0.150E-01
DAV:  10    -0.105457695872E+02    0.42764E-03   -0.51626E-05  1244   0.974E-02    0.464E-03
DAV:  11    -0.105457719273E+02   -0.23400E-05   -0.99604E-07  1242   0.113E-02    0.224E-03
DAV:  12    -0.105457709952E+02    0.93212E-06   -0.70550E-08  1300   0.229E-03    0.114E-04
DAV:  13    -0.105457706861E+02    0.30903E-06   -0.17549E-09   616   0.595E-04    0.822E-05
DAV:  14    -0.105457706434E+02    0.42705E-07   -0.42480E-10   590   0.241E-04    0.946E-05
DAV:  15    -0.105457706077E+02    0.35699E-07   -0.17079E-10   580   0.232E-04    0.391E-05
DAV:  16    -0.105457706202E+02   -0.12506E-07   -0.42201E-11   578   0.103E-04    0.239E-06
DAV:  17    -0.105457706182E+02    0.20668E-08   -0.16134E-11   582   0.542E-05
   1 F= -.10545771E+02 E0= -.10545771E+02  d E =-.105458E+02
