<?xml version="1.0" encoding="ISO-8859-1"?>
<modeling>
 <generator>
  <i name="program" type="string">vasp </i>
  <i name="version" type="string">5.4.4.18Apr17-6-g9f103f2a35  </i>
  <i name="subversion" type="string">(build Jan 03 2019 12:41:38) complex            parallel </i>
  <i name="platform" type="string">LinuxIFC </i>
  <i name="date" type="string">2019 07 01 </i>
  <i name="time" type="string">13:13:31 </i>
 </generator>
 <incar>
  <i type="string" name="PREC">accurate</i>
  <i type="logical" name="ADDGRID"> T  </i>
  <i type="int" name="IBRION">     2</i>
  <i name="EDIFF">      0.00000001</i>
  <i type="int" name="NSW">    11</i>
  <i name="ENCUT">    300.00000000</i>
  <i type="logical" name="LREAL"> F  </i>
  <i type="int" name="ISMEAR">    -5</i>
  <i type="logical" name="LWAVE"> F  </i>
  <i type="logical" name="LCHARG"> F  </i>
  <v type="int" name="KPOINT_BSE">    -1     0     0     0</v>
 </incar>
 <structure name="primitive_cell" >
  <crystal>
   <varray name="basis" >
    <v>       1.17882328       1.17882328       1.17882328 </v>
    <v>       1.17882328      -1.17882328      -1.17882328 </v>
    <v>      -1.17882328       1.17882328      -1.17882328 </v>
   </varray>
   <i name="volume">      6.55248600 </i>
   <varray name="rec_basis" >
    <v>       0.42415179       0.42415179       0.00000000 </v>
    <v>       0.42415179       0.00000000      -0.42415179 </v>
    <v>       0.00000000       0.42415179      -0.42415179 </v>
   </varray>
  </crystal>
  <varray name="positions" >
   <v>       0.00000000       0.00000000       0.00000000 </v>
  </varray>
 </structure>
 <varray name="primitive_index" >
  <v type="int" >        1 </v>
 </varray>
 <kpoints>
  <generation param="Monkhorst-Pack">
   <v type="int" name="divisions">      12       12       12 </v>
   <v name="usershift">      0.00000000       0.00000000       0.00000000 </v>
   <v name="genvec1">      0.08333333       0.00000000       0.00000000 </v>
   <v name="genvec2">      0.00000000       0.08333333       0.00000000 </v>
   <v name="genvec3">      0.00000000       0.00000000       0.08333333 </v>
   <v name="shift">      0.50000000       0.50000000       0.50000000 </v>
  </generation>
  <varray name="kpointlist" >
   <v>       0.04166667       0.04166667       0.04166667 </v>
   <v>       0.12500000       0.04166667       0.04166667 </v>
   <v>       0.20833333       0.04166667       0.04166667 </v>
   <v>       0.29166667       0.04166667       0.04166667 </v>
   <v>       0.37500000       0.04166667       0.04166667 </v>
   <v>       0.45833333       0.04166667       0.04166667 </v>
   <v>       0.12500000       0.12500000       0.04166667 </v>
   <v>       0.20833333       0.12500000       0.04166667 </v>
   <v>       0.29166667       0.12500000       0.04166667 </v>
   <v>       0.37500000       0.12500000       0.04166667 </v>
   <v>       0.45833333       0.12500000       0.04166667 </v>
   <v>       0.20833333       0.20833333       0.04166667 </v>
   <v>       0.29166667       0.20833333       0.04166667 </v>
   <v>       0.37500000       0.20833333       0.04166667 </v>
   <v>       0.45833333       0.20833333       0.04166667 </v>
   <v>       0.29166667       0.29166667       0.04166667 </v>
   <v>       0.37500000       0.29166667       0.04166667 </v>
   <v>       0.45833333       0.29166667       0.04166667 </v>
   <v>       0.37500000       0.37500000       0.04166667 </v>
   <v>       0.45833333       0.37500000       0.04166667 </v>
   <v>       0.45833333       0.45833333       0.04166667 </v>
   <v>       0.12500000       0.12500000       0.12500000 </v>
   <v>       0.20833333       0.12500000       0.12500000 </v>
   <v>       0.29166667       0.12500000       0.12500000 </v>
   <v>       0.37500000       0.12500000       0.12500000 </v>
   <v>       0.45833333       0.12500000       0.12500000 </v>
   <v>       0.20833333       0.20833333       0.12500000 </v>
   <v>       0.29166667       0.20833333       0.12500000 </v>
   <v>       0.37500000       0.20833333       0.12500000 </v>
   <v>       0.45833333       0.20833333       0.12500000 </v>
   <v>       0.29166667       0.29166667       0.12500000 </v>
   <v>       0.37500000       0.29166667       0.12500000 </v>
   <v>       0.45833333       0.29166667       0.12500000 </v>
   <v>       0.37500000       0.37500000       0.12500000 </v>
   <v>       0.45833333       0.37500000       0.12500000 </v>
   <v>       0.45833333       0.45833333       0.12500000 </v>
   <v>       0.20833333       0.20833333       0.20833333 </v>
   <v>       0.29166667       0.20833333       0.20833333 </v>
   <v>       0.37500000       0.20833333       0.20833333 </v>
   <v>       0.45833333       0.20833333       0.20833333 </v>
   <v>       0.29166667       0.29166667       0.20833333 </v>
   <v>       0.37500000       0.29166667       0.20833333 </v>
   <v>       0.45833333       0.29166667       0.20833333 </v>
   <v>       0.37500000       0.37500000       0.20833333 </v>
   <v>       0.45833333       0.37500000       0.20833333 </v>
   <v>       0.45833333       0.45833333       0.20833333 </v>
   <v>       0.29166667       0.29166667       0.29166667 </v>
   <v>       0.37500000       0.29166667       0.29166667 </v>
   <v>       0.45833333       0.29166667       0.29166667 </v>
   <v>       0.37500000       0.37500000       0.29166667 </v>
   <v>       0.45833333       0.37500000       0.29166667 </v>
   <v>       0.45833333       0.45833333       0.29166667 </v>
   <v>       0.37500000       0.37500000       0.37500000 </v>
   <v>       0.45833333       0.37500000       0.37500000 </v>
   <v>       0.45833333       0.45833333       0.37500000 </v>
   <v>       0.45833333       0.45833333       0.45833333 </v>
  </varray>
  <varray name="weights" >
   <v>       0.00462963 </v>
   <v>       0.01388889 </v>
   <v>       0.01388889 </v>
   <v>       0.01388889 </v>
   <v>       0.01388889 </v>
   <v>       0.01388889 </v>
   <v>       0.01388889 </v>
   <v>       0.02777778 </v>
   <v>       0.02777778 </v>
   <v>       0.02777778 </v>
   <v>       0.02777778 </v>
   <v>       0.01388889 </v>
   <v>       0.02777778 </v>
   <v>       0.02777778 </v>
   <v>       0.02777778 </v>
   <v>       0.01388889 </v>
   <v>       0.02777778 </v>
   <v>       0.02777778 </v>
   <v>       0.01388889 </v>
   <v>       0.02777778 </v>
   <v>       0.01388889 </v>
   <v>       0.00462963 </v>
   <v>       0.01388889 </v>
   <v>       0.01388889 </v>
   <v>       0.01388889 </v>
   <v>       0.01388889 </v>
   <v>       0.01388889 </v>
   <v>       0.02777778 </v>
   <v>       0.02777778 </v>
   <v>       0.02777778 </v>
   <v>       0.01388889 </v>
   <v>       0.02777778 </v>
   <v>       0.02777778 </v>
   <v>       0.01388889 </v>
   <v>       0.02777778 </v>
   <v>       0.01388889 </v>
   <v>       0.00462963 </v>
   <v>       0.01388889 </v>
   <v>       0.01388889 </v>
   <v>       0.01388889 </v>
   <v>       0.01388889 </v>
   <v>       0.02777778 </v>
   <v>       0.02777778 </v>
   <v>       0.01388889 </v>
   <v>       0.02777778 </v>
   <v>       0.01388889 </v>
   <v>       0.00462963 </v>
   <v>       0.01388889 </v>
   <v>       0.01388889 </v>
   <v>       0.01388889 </v>
   <v>       0.02777778 </v>
   <v>       0.01388889 </v>
   <v>       0.00462963 </v>
   <v>       0.01388889 </v>
   <v>       0.01388889 </v>
   <v>       0.00462963 </v>
  </varray>
  <varray name="tetrahedronlist"  type="int" >
   <v type="int" >       24        1        2        2        7 </v>
   <v type="int" >       18        2        2        7        7 </v>
   <v type="int" >       12        2        7        7       22 </v>
   <v type="int" >       12        2        3        7        8 </v>
   <v type="int" >       24        2        7        7        8 </v>
   <v type="int" >       12        7        7        8       22 </v>
   <v type="int" >       24        3        7        8        8 </v>
   <v type="int" >       24        7        8        8       23 </v>
   <v type="int" >       24        7        8       22       23 </v>
   <v type="int" >       12        3        4        8        9 </v>
   <v type="int" >       24        3        8        8        9 </v>
   <v type="int" >       12        8        8        9       23 </v>
   <v type="int" >       24        4        8        9        9 </v>
   <v type="int" >       12        8        9        9       24 </v>
   <v type="int" >       12        8        9       23       24 </v>
   <v type="int" >       12        4        5        9       10 </v>
   <v type="int" >       24        4        9        9       10 </v>
   <v type="int" >       12        9        9       10       24 </v>
   <v type="int" >       24        5        9       10       10 </v>
   <v type="int" >       12        9       10       10       25 </v>
   <v type="int" >       12        9       10       24       25 </v>
   <v type="int" >       12        5        6       10       11 </v>
   <v type="int" >       24        5       10       10       11 </v>
   <v type="int" >       12       10       10       11       25 </v>
   <v type="int" >       24        6       10       11       11 </v>
   <v type="int" >       12       10       11       11       26 </v>
   <v type="int" >       12       10       11       25       26 </v>
   <v type="int" >       30        6        6       11       11 </v>
   <v type="int" >       36        6       11       11       11 </v>
   <v type="int" >       12       11       11       11       26 </v>
   <v type="int" >        6       11       11       26       26 </v>
   <v type="int" >       18        1        1        2        2 </v>
   <v type="int" >       24        1        2        2        2 </v>
   <v type="int" >       12        2        2        2        7 </v>
   <v type="int" >       12        7        8       12       22 </v>
   <v type="int" >       12        8       12       22       23 </v>
   <v type="int" >       12       12       22       23       27 </v>
   <v type="int" >       12        8        9       13       23 </v>
   <v type="int" >       12        8       12       13       23 </v>
   <v type="int" >       12       12       13       23       27 </v>
   <v type="int" >       12        9       13       23       24 </v>
   <v type="int" >       12       13       23       24       28 </v>
   <v type="int" >       12       13       23       27       28 </v>
   <v type="int" >       12        9       10       14       24 </v>
   <v type="int" >       12        9       13       14       24 </v>
   <v type="int" >       12       13       14       24       28 </v>
   <v type="int" >       12       10       14       24       25 </v>
   <v type="int" >       12       14       24       25       29 </v>
   <v type="int" >       12       14       24       28       29 </v>
   <v type="int" >       12       10       11       15       25 </v>
   <v type="int" >       12       10       14       15       25 </v>
   <v type="int" >       12       14       15       25       29 </v>
   <v type="int" >       12       11       15       25       26 </v>
   <v type="int" >       12       15       25       26       30 </v>
   <v type="int" >       12       15       25       29       30 </v>
   <v type="int" >       12       11       11       15       26 </v>
   <v type="int" >       12       11       15       15       26 </v>
   <v type="int" >       12       15       15       26       30 </v>
   <v type="int" >       12       11       15       26       26 </v>
   <v type="int" >       12       15       26       26       30 </v>
   <v type="int" >       12       15       26       30       30 </v>
   <v type="int" >       12       10       11       14       26 </v>
   <v type="int" >       12       11       14       15       26 </v>
   <v type="int" >       12       14       15       26       30 </v>
   <v type="int" >       12       10       14       25       26 </v>
   <v type="int" >       12       14       25       26       29 </v>
   <v type="int" >       12       14       26       29       30 </v>
   <v type="int" >       12        9       10       13       25 </v>
   <v type="int" >       12       10       13       14       25 </v>
   <v type="int" >       12       13       14       25       29 </v>
   <v type="int" >       12        9       13       24       25 </v>
   <v type="int" >       12       13       24       25       28 </v>
   <v type="int" >       12       13       25       28       29 </v>
   <v type="int" >       12        8        9       12       24 </v>
   <v type="int" >       12        9       12       13       24 </v>
   <v type="int" >       12       12       13       24       28 </v>
   <v type="int" >       12        8       12       23       24 </v>
   <v type="int" >       12       12       23       24       27 </v>
   <v type="int" >       12       12       24       27       28 </v>
   <v type="int" >       12        8        8       12       23 </v>
   <v type="int" >       12        8       12       23       27 </v>
   <v type="int" >       12        8       22       23       23 </v>
   <v type="int" >       12        8       23       23       27 </v>
   <v type="int" >       12        2        3        7       22 </v>
   <v type="int" >       12        3        7        8       22 </v>
   <v type="int" >       12        3        8       22       23 </v>
   <v type="int" >       12        2        2        3        7 </v>
   <v type="int" >       12        2        3        3        7 </v>
   <v type="int" >       12        3        3        7        8 </v>
   <v type="int" >       12        2        3        7        7 </v>
   <v type="int" >       12        3        7        7        8 </v>
   <v type="int" >       12       12       13       16       27 </v>
   <v type="int" >       12       13       16       27       28 </v>
   <v type="int" >       12       16       27       28       31 </v>
   <v type="int" >       12       13       14       17       28 </v>
   <v type="int" >       12       13       16       17       28 </v>
   <v type="int" >       12       16       17       28       31 </v>
   <v type="int" >       12       14       17       28       29 </v>
   <v type="int" >       12       17       28       29       32 </v>
   <v type="int" >       12       17       28       31       32 </v>
   <v type="int" >       12       14       15       18       29 </v>
   <v type="int" >       12       14       17       18       29 </v>
   <v type="int" >       12       17       18       29       32 </v>
   <v type="int" >       12       15       18       29       30 </v>
   <v type="int" >       12       18       29       30       33 </v>
   <v type="int" >       12       18       29       32       33 </v>
   <v type="int" >       12       15       15       18       30 </v>
   <v type="int" >       12       15       18       18       30 </v>
   <v type="int" >       12       18       18       30       33 </v>
   <v type="int" >       12       15       18       30       30 </v>
   <v type="int" >       12       18       30       30       33 </v>
   <v type="int" >       12       18       30       33       33 </v>
   <v type="int" >       12       14       15       17       30 </v>
   <v type="int" >       12       15       17       18       30 </v>
   <v type="int" >       12       17       18       30       33 </v>
   <v type="int" >       12       14       17       29       30 </v>
   <v type="int" >       12       17       29       30       32 </v>
   <v type="int" >       12       17       30       32       33 </v>
   <v type="int" >       12       13       14       16       29 </v>
   <v type="int" >       12       14       16       17       29 </v>
   <v type="int" >       12       16       17       29       32 </v>
   <v type="int" >       12       13       16       28       29 </v>
   <v type="int" >       12       16       28       29       31 </v>
   <v type="int" >       12       16       29       31       32 </v>
   <v type="int" >       12       12       13       13       28 </v>
   <v type="int" >       12       13       13       16       28 </v>
   <v type="int" >       12       13       16       28       31 </v>
   <v type="int" >       12       12       13       27       28 </v>
   <v type="int" >       12       13       27       28       28 </v>
   <v type="int" >       12       13       28       28       31 </v>
   <v type="int" >       12        8        9       12       27 </v>
   <v type="int" >       12        9       12       13       27 </v>
   <v type="int" >       12        9       13       27       28 </v>
   <v type="int" >       12        8        9       23       27 </v>
   <v type="int" >       12        9       23       24       27 </v>
   <v type="int" >       12        9       24       27       28 </v>
   <v type="int" >       12        3        4        8       23 </v>
   <v type="int" >       12        4        8        9       23 </v>
   <v type="int" >       12        4        9       23       24 </v>
   <v type="int" >       12        3        3        4        8 </v>
   <v type="int" >       12        3        4        4        8 </v>
   <v type="int" >       12        4        4        8        9 </v>
   <v type="int" >       12        3        4        8        8 </v>
   <v type="int" >       12        4        8        8        9 </v>
   <v type="int" >       12       16       17       19       31 </v>
   <v type="int" >       12       17       19       31       32 </v>
   <v type="int" >       12       19       31       32       34 </v>
   <v type="int" >       12       17       18       20       32 </v>
   <v type="int" >       12       17       19       20       32 </v>
   <v type="int" >       12       19       20       32       34 </v>
   <v type="int" >       12       18       20       32       33 </v>
   <v type="int" >       12       20       32       33       35 </v>
   <v type="int" >       12       20       32       34       35 </v>
   <v type="int" >       12       18       18       20       33 </v>
   <v type="int" >       12       18       20       20       33 </v>
   <v type="int" >       12       20       20       33       35 </v>
   <v type="int" >       12       18       20       33       33 </v>
   <v type="int" >       12       20       33       33       35 </v>
   <v type="int" >       12       20       33       35       35 </v>
   <v type="int" >       12       17       18       19       33 </v>
   <v type="int" >       12       18       19       20       33 </v>
   <v type="int" >       12       19       20       33       35 </v>
   <v type="int" >       12       17       19       32       33 </v>
   <v type="int" >       12       19       32       33       34 </v>
   <v type="int" >       12       19       33       34       35 </v>
   <v type="int" >       12       16       17       17       32 </v>
   <v type="int" >       12       17       17       19       32 </v>
   <v type="int" >       12       17       19       32       34 </v>
   <v type="int" >       12       16       17       31       32 </v>
   <v type="int" >       12       17       31       32       32 </v>
   <v type="int" >       12       17       32       32       34 </v>
   <v type="int" >       12       13       14       16       31 </v>
   <v type="int" >       12       14       16       17       31 </v>
   <v type="int" >       12       14       17       31       32 </v>
   <v type="int" >       12       13       14       28       31 </v>
   <v type="int" >       12       14       28       29       31 </v>
   <v type="int" >       12       14       29       31       32 </v>
   <v type="int" >       12        9       10       13       28 </v>
   <v type="int" >       12       10       13       14       28 </v>
   <v type="int" >       12       10       14       28       29 </v>
   <v type="int" >       12        9       10       24       28 </v>
   <v type="int" >       12       10       24       25       28 </v>
   <v type="int" >       12       10       25       28       29 </v>
   <v type="int" >       12        4        5        9       24 </v>
   <v type="int" >       12        5        9       10       24 </v>
   <v type="int" >       12        5       10       24       25 </v>
   <v type="int" >       12        4        4        5        9 </v>
   <v type="int" >       12        4        5        5        9 </v>
   <v type="int" >       12        5        5        9       10 </v>
   <v type="int" >       12        4        5        9        9 </v>
   <v type="int" >       12        5        9        9       10 </v>
   <v type="int" >       12       19       20       21       34 </v>
   <v type="int" >       12       20       21       34       35 </v>
   <v type="int" >       12       21       34       35       36 </v>
   <v type="int" >       24       20       20       21       35 </v>
   <v type="int" >       12       20       21       21       35 </v>
   <v type="int" >       12       21       21       35       36 </v>
   <v type="int" >       12       20       21       35       35 </v>
   <v type="int" >       12       21       35       35       36 </v>
   <v type="int" >       12       21       35       36       36 </v>
   <v type="int" >       12       19       20       20       35 </v>
   <v type="int" >       12       20       21       35       36 </v>
   <v type="int" >       12       19       20       34       35 </v>
   <v type="int" >       12       20       34       35       35 </v>
   <v type="int" >       24       20       35       35       36 </v>
   <v type="int" >       12       17       18       19       34 </v>
   <v type="int" >       12       18       19       20       34 </v>
   <v type="int" >       12       18       20       34       35 </v>
   <v type="int" >       12       17       18       32       34 </v>
   <v type="int" >       12       18       32       33       34 </v>
   <v type="int" >       12       18       33       34       35 </v>
   <v type="int" >       12       14       15       17       32 </v>
   <v type="int" >       12       15       17       18       32 </v>
   <v type="int" >       12       15       18       32       33 </v>
   <v type="int" >       12       14       15       29       32 </v>
   <v type="int" >       12       15       29       30       32 </v>
   <v type="int" >       12       15       30       32       33 </v>
   <v type="int" >       12       10       11       14       29 </v>
   <v type="int" >       12       11       14       15       29 </v>
   <v type="int" >       12       11       15       29       30 </v>
   <v type="int" >       12       10       11       25       29 </v>
   <v type="int" >       12       11       25       26       29 </v>
   <v type="int" >       12       11       26       29       30 </v>
   <v type="int" >       12        5        6       10       25 </v>
   <v type="int" >       12        6       10       11       25 </v>
   <v type="int" >       12        6       11       25       26 </v>
   <v type="int" >       12        5        5        6       10 </v>
   <v type="int" >       12        5        6        6       10 </v>
   <v type="int" >       12        6        6       10       11 </v>
   <v type="int" >       12        5        6       10       10 </v>
   <v type="int" >       12        6       10       10       11 </v>
   <v type="int" >       12       21       21       21       36 </v>
   <v type="int" >       12       21       21       36       36 </v>
   <v type="int" >       12       21       36       36       36 </v>
   <v type="int" >       12       20       20       21       36 </v>
   <v type="int" >       12       20       21       21       36 </v>
   <v type="int" >       12       20       21       36       36 </v>
   <v type="int" >       12       20       20       35       36 </v>
   <v type="int" >       12       20       35       36       36 </v>
   <v type="int" >       12       18       18       20       35 </v>
   <v type="int" >       12       18       20       20       35 </v>
   <v type="int" >       12       18       20       35       35 </v>
   <v type="int" >       12       18       18       33       35 </v>
   <v type="int" >       12       18       33       33       35 </v>
   <v type="int" >       12       18       33       35       35 </v>
   <v type="int" >       12       15       15       18       33 </v>
   <v type="int" >       12       15       18       18       33 </v>
   <v type="int" >       12       15       18       33       33 </v>
   <v type="int" >       12       15       15       30       33 </v>
   <v type="int" >       12       15       30       30       33 </v>
   <v type="int" >       12       15       30       33       33 </v>
   <v type="int" >       12       11       11       15       30 </v>
   <v type="int" >       12       11       15       15       30 </v>
   <v type="int" >       12       11       15       30       30 </v>
   <v type="int" >       12       11       11       26       30 </v>
   <v type="int" >       12       11       26       26       30 </v>
   <v type="int" >       12       11       26       30       30 </v>
   <v type="int" >       12        6        6       11       26 </v>
   <v type="int" >       12        6       11       11       26 </v>
   <v type="int" >       12        6       11       26       26 </v>
   <v type="int" >       24        6        6        6       11 </v>
   <v type="int" >       12       19       20       21       36 </v>
   <v type="int" >       12       19       20       35       36 </v>
   <v type="int" >       12       19       34       35       36 </v>
   <v type="int" >       12       17       18       20       35 </v>
   <v type="int" >       12       17       19       20       35 </v>
   <v type="int" >       12       17       19       34       35 </v>
   <v type="int" >       12       17       18       33       35 </v>
   <v type="int" >       12       17       32       33       35 </v>
   <v type="int" >       12       17       32       34       35 </v>
   <v type="int" >       12       14       15       18       33 </v>
   <v type="int" >       12       14       17       18       33 </v>
   <v type="int" >       12       14       17       32       33 </v>
   <v type="int" >       12       14       15       30       33 </v>
   <v type="int" >       12       14       29       30       33 </v>
   <v type="int" >       12       14       29       32       33 </v>
   <v type="int" >       12       10       11       15       30 </v>
   <v type="int" >       12       10       14       15       30 </v>
   <v type="int" >       12       10       14       29       30 </v>
   <v type="int" >       12       10       11       26       30 </v>
   <v type="int" >       12       10       25       26       30 </v>
   <v type="int" >       12       10       25       29       30 </v>
   <v type="int" >       12        5        6       11       26 </v>
   <v type="int" >       12        5       10       11       26 </v>
   <v type="int" >       12        5       10       25       26 </v>
   <v type="int" >       12        5        6        6       11 </v>
   <v type="int" >       12        5        5        6       11 </v>
   <v type="int" >       12        5        5       10       11 </v>
   <v type="int" >       12        5        6       11       11 </v>
   <v type="int" >       12        5       10       11       11 </v>
   <v type="int" >       12       16       17       19       34 </v>
   <v type="int" >       12       16       17       32       34 </v>
   <v type="int" >       12       16       31       32       34 </v>
   <v type="int" >       12       13       14       17       32 </v>
   <v type="int" >       12       13       16       17       32 </v>
   <v type="int" >       12       13       16       31       32 </v>
   <v type="int" >       12       13       14       29       32 </v>
   <v type="int" >       12       13       28       29       32 </v>
   <v type="int" >       12       13       28       31       32 </v>
   <v type="int" >       12        9       10       14       29 </v>
   <v type="int" >       12        9       13       14       29 </v>
   <v type="int" >       12        9       13       28       29 </v>
   <v type="int" >       12        9       10       25       29 </v>
   <v type="int" >       12        9       24       25       29 </v>
   <v type="int" >       12        9       24       28       29 </v>
   <v type="int" >       12        4        5       10       25 </v>
   <v type="int" >       12        4        9       10       25 </v>
   <v type="int" >       12        4        9       24       25 </v>
   <v type="int" >       12        4        5        5       10 </v>
   <v type="int" >       12        4        4        5       10 </v>
   <v type="int" >       12        4        4        9       10 </v>
   <v type="int" >       12        4        5       10       10 </v>
   <v type="int" >       12        4        9       10       10 </v>
   <v type="int" >       12       12       13       16       31 </v>
   <v type="int" >       12       12       13       28       31 </v>
   <v type="int" >       12       12       27       28       31 </v>
   <v type="int" >       12        8        9       13       28 </v>
   <v type="int" >       12        8       12       13       28 </v>
   <v type="int" >       12        8       12       27       28 </v>
   <v type="int" >       12        8        9       24       28 </v>
   <v type="int" >       12        8       23       24       28 </v>
   <v type="int" >       12        8       23       27       28 </v>
   <v type="int" >       12        3        4        9       24 </v>
   <v type="int" >       12        3        8        9       24 </v>
   <v type="int" >       12        3        8       23       24 </v>
   <v type="int" >       12        3        4        4        9 </v>
   <v type="int" >       12        3        3        4        9 </v>
   <v type="int" >       12        3        3        8        9 </v>
   <v type="int" >       12        3        4        9        9 </v>
   <v type="int" >       12        3        8        9        9 </v>
   <v type="int" >       12        7        8       12       27 </v>
   <v type="int" >       12        7        8       23       27 </v>
   <v type="int" >       12        7       22       23       27 </v>
   <v type="int" >       12        2        3        8       23 </v>
   <v type="int" >       12        2        7        8       23 </v>
   <v type="int" >       12        2        7       22       23 </v>
   <v type="int" >       12        2        3        3        8 </v>
   <v type="int" >       12        2        2        3        8 </v>
   <v type="int" >       12        2        2        7        8 </v>
   <v type="int" >       12        2        3        8        8 </v>
   <v type="int" >       12        2        7        8        8 </v>
   <v type="int" >       12        1        2        7       22 </v>
   <v type="int" >       12        1        1        2        7 </v>
   <v type="int" >       12        1        2        7        7 </v>
   <v type="int" >       12        1        1        1        2 </v>
   <v type="int" >       12       22       23       23       27 </v>
   <v type="int" >       12       23       23       27       27 </v>
   <v type="int" >       12       23       27       27       37 </v>
   <v type="int" >       12       23       24       27       28 </v>
   <v type="int" >       12       23       27       27       28 </v>
   <v type="int" >       12       27       27       28       37 </v>
   <v type="int" >       12       24       27       28       28 </v>
   <v type="int" >       24       27       28       28       38 </v>
   <v type="int" >       24       27       28       37       38 </v>
   <v type="int" >       12       24       25       28       29 </v>
   <v type="int" >       12       24       28       28       29 </v>
   <v type="int" >       12       28       28       29       38 </v>
   <v type="int" >       12       25       28       29       29 </v>
   <v type="int" >       12       28       29       29       39 </v>
   <v type="int" >       12       28       29       38       39 </v>
   <v type="int" >       12       25       26       29       30 </v>
   <v type="int" >       12       25       29       29       30 </v>
   <v type="int" >       12       29       29       30       39 </v>
   <v type="int" >       12       26       29       30       30 </v>
   <v type="int" >       12       29       30       30       40 </v>
   <v type="int" >       12       29       30       39       40 </v>
   <v type="int" >        6       26       26       30       30 </v>
   <v type="int" >       12       26       30       30       30 </v>
   <v type="int" >       12       30       30       30       40 </v>
   <v type="int" >        6       30       30       40       40 </v>
   <v type="int" >        6        7        7        8        8 </v>
   <v type="int" >       12        7        8        8        8 </v>
   <v type="int" >       12        8        8        8       12 </v>
   <v type="int" >        6        8        8       12       12 </v>
   <v type="int" >       12       27       28       31       37 </v>
   <v type="int" >       12       28       31       37       38 </v>
   <v type="int" >       12       31       37       38       41 </v>
   <v type="int" >       12       28       29       32       38 </v>
   <v type="int" >       12       28       31       32       38 </v>
   <v type="int" >       12       31       32       38       41 </v>
   <v type="int" >       12       29       32       38       39 </v>
   <v type="int" >       12       32       38       39       42 </v>
   <v type="int" >       12       32       38       41       42 </v>
   <v type="int" >       12       29       30       33       39 </v>
   <v type="int" >       12       29       32       33       39 </v>
   <v type="int" >       12       32       33       39       42 </v>
   <v type="int" >       12       30       33       39       40 </v>
   <v type="int" >       12       33       39       40       43 </v>
   <v type="int" >       12       33       39       42       43 </v>
   <v type="int" >       12       30       30       33       40 </v>
   <v type="int" >       12       30       33       33       40 </v>
   <v type="int" >       12       33       33       40       43 </v>
   <v type="int" >       12       30       33       40       40 </v>
   <v type="int" >       12       33       40       40       43 </v>
   <v type="int" >       12       33       40       43       43 </v>
   <v type="int" >       12       29       30       32       40 </v>
   <v type="int" >       12       30       32       33       40 </v>
   <v type="int" >       12       32       33       40       43 </v>
   <v type="int" >       12       29       32       39       40 </v>
   <v type="int" >       12       32       39       40       42 </v>
   <v type="int" >       12       32       40       42       43 </v>
   <v type="int" >       12       28       29       31       39 </v>
   <v type="int" >       12       29       31       32       39 </v>
   <v type="int" >       12       31       32       39       42 </v>
   <v type="int" >       12       28       31       38       39 </v>
   <v type="int" >       12       31       38       39       41 </v>
   <v type="int" >       12       31       39       41       42 </v>
   <v type="int" >       12       28       28       31       38 </v>
   <v type="int" >       12       28       31       38       41 </v>
   <v type="int" >       12       28       37       38       38 </v>
   <v type="int" >       12       28       38       38       41 </v>
   <v type="int" >       12       23       24       27       37 </v>
   <v type="int" >       12       24       27       28       37 </v>
   <v type="int" >       12       24       28       37       38 </v>
   <v type="int" >       12        8        8        9       12 </v>
   <v type="int" >       12        8        9        9       12 </v>
   <v type="int" >       12        9        9       12       13 </v>
   <v type="int" >       12        8        9       12       12 </v>
   <v type="int" >       12        9       12       12       13 </v>
   <v type="int" >       12        9       12       13       13 </v>
   <v type="int" >       12       31       32       34       41 </v>
   <v type="int" >       12       32       34       41       42 </v>
   <v type="int" >       12       34       41       42       44 </v>
   <v type="int" >       12       32       33       35       42 </v>
   <v type="int" >       12       32       34       35       42 </v>
   <v type="int" >       12       34       35       42       44 </v>
   <v type="int" >       12       33       35       42       43 </v>
   <v type="int" >       12       35       42       43       45 </v>
   <v type="int" >       12       35       42       44       45 </v>
   <v type="int" >       12       33       33       35       43 </v>
   <v type="int" >       12       33       35       35       43 </v>
   <v type="int" >       12       35       35       43       45 </v>
   <v type="int" >       12       33       35       43       43 </v>
   <v type="int" >       12       35       43       43       45 </v>
   <v type="int" >       12       35       43       45       45 </v>
   <v type="int" >       12       32       33       34       43 </v>
   <v type="int" >       12       33       34       35       43 </v>
   <v type="int" >       12       34       35       43       45 </v>
   <v type="int" >       12       32       34       42       43 </v>
   <v type="int" >       12       34       42       43       44 </v>
   <v type="int" >       12       34       43       44       45 </v>
   <v type="int" >       12       31       32       32       42 </v>
   <v type="int" >       12       32       32       34       42 </v>
   <v type="int" >       12       32       34       42       44 </v>
   <v type="int" >       12       31       32       41       42 </v>
   <v type="int" >       12       32       41       42       42 </v>
   <v type="int" >       12       32       42       42       44 </v>
   <v type="int" >       12       28       29       31       41 </v>
   <v type="int" >       12       29       31       32       41 </v>
   <v type="int" >       12       29       32       41       42 </v>
   <v type="int" >       12       28       29       38       41 </v>
   <v type="int" >       12       29       38       39       41 </v>
   <v type="int" >       12       29       39       41       42 </v>
   <v type="int" >       12       24       25       28       38 </v>
   <v type="int" >       12       25       28       29       38 </v>
   <v type="int" >       12       25       29       38       39 </v>
   <v type="int" >       12        9        9       10       13 </v>
   <v type="int" >       12        9       10       10       13 </v>
   <v type="int" >       12       10       10       13       14 </v>
   <v type="int" >       12        9       10       13       13 </v>
   <v type="int" >       12       10       13       13       14 </v>
   <v type="int" >       12       10       13       14       14 </v>
   <v type="int" >       12       34       35       36       44 </v>
   <v type="int" >       12       35       36       44       45 </v>
   <v type="int" >       12       36       44       45       46 </v>
   <v type="int" >       24       35       35       36       45 </v>
   <v type="int" >       12       35       36       36       45 </v>
   <v type="int" >       12       36       36       45       46 </v>
   <v type="int" >       12       35       36       45       45 </v>
   <v type="int" >       12       36       45       45       46 </v>
   <v type="int" >       12       36       45       46       46 </v>
   <v type="int" >       12       34       35       35       45 </v>
   <v type="int" >       12       35       36       45       46 </v>
   <v type="int" >       12       34       35       44       45 </v>
   <v type="int" >       12       35       44       45       45 </v>
   <v type="int" >       24       35       45       45       46 </v>
   <v type="int" >       12       32       33       34       44 </v>
   <v type="int" >       12       33       34       35       44 </v>
   <v type="int" >       12       33       35       44       45 </v>
   <v type="int" >       12       32       33       42       44 </v>
   <v type="int" >       12       33       42       43       44 </v>
   <v type="int" >       12       33       43       44       45 </v>
   <v type="int" >       12       29       30       32       42 </v>
   <v type="int" >       12       30       32       33       42 </v>
   <v type="int" >       12       30       33       42       43 </v>
   <v type="int" >       12       29       30       39       42 </v>
   <v type="int" >       12       30       39       40       42 </v>
   <v type="int" >       12       30       40       42       43 </v>
   <v type="int" >       12       25       26       29       39 </v>
   <v type="int" >       12       26       29       30       39 </v>
   <v type="int" >       12       26       30       39       40 </v>
   <v type="int" >       12       10       10       11       14 </v>
   <v type="int" >       12       10       11       11       14 </v>
   <v type="int" >       12       11       11       14       15 </v>
   <v type="int" >       12       10       11       14       14 </v>
   <v type="int" >       12       11       14       14       15 </v>
   <v type="int" >       12       11       14       15       15 </v>
   <v type="int" >       12       36       36       36       46 </v>
   <v type="int" >       12       36       36       46       46 </v>
   <v type="int" >       12       36       46       46       46 </v>
   <v type="int" >       12       35       35       36       46 </v>
   <v type="int" >       12       35       36       36       46 </v>
   <v type="int" >       12       35       36       46       46 </v>
   <v type="int" >       12       35       35       45       46 </v>
   <v type="int" >       12       35       45       46       46 </v>
   <v type="int" >       12       33       33       35       45 </v>
   <v type="int" >       12       33       35       35       45 </v>
   <v type="int" >       12       33       35       45       45 </v>
   <v type="int" >       12       33       33       43       45 </v>
   <v type="int" >       12       33       43       43       45 </v>
   <v type="int" >       12       33       43       45       45 </v>
   <v type="int" >       12       30       30       33       43 </v>
   <v type="int" >       12       30       33       33       43 </v>
   <v type="int" >       12       30       33       43       43 </v>
   <v type="int" >       12       30       30       40       43 </v>
   <v type="int" >       12       30       40       40       43 </v>
   <v type="int" >       12       30       40       43       43 </v>
   <v type="int" >       12       26       26       30       40 </v>
   <v type="int" >       12       26       30       30       40 </v>
   <v type="int" >       12       26       30       40       40 </v>
   <v type="int" >       24       11       11       11       15 </v>
   <v type="int" >       24       11       11       15       15 </v>
   <v type="int" >       24       11       15       15       15 </v>
   <v type="int" >       12       34       35       36       46 </v>
   <v type="int" >       12       34       35       45       46 </v>
   <v type="int" >       12       34       44       45       46 </v>
   <v type="int" >       12       32       33       35       45 </v>
   <v type="int" >       12       32       34       35       45 </v>
   <v type="int" >       12       32       34       44       45 </v>
   <v type="int" >       12       32       33       43       45 </v>
   <v type="int" >       12       32       42       43       45 </v>
   <v type="int" >       12       32       42       44       45 </v>
   <v type="int" >       12       29       30       33       43 </v>
   <v type="int" >       12       29       32       33       43 </v>
   <v type="int" >       12       29       32       42       43 </v>
   <v type="int" >       12       29       30       40       43 </v>
   <v type="int" >       12       29       39       40       43 </v>
   <v type="int" >       12       29       39       42       43 </v>
   <v type="int" >       12       25       26       30       40 </v>
   <v type="int" >       12       25       29       30       40 </v>
   <v type="int" >       12       25       29       39       40 </v>
   <v type="int" >       12       10       11       11       15 </v>
   <v type="int" >       12       10       10       11       15 </v>
   <v type="int" >       12       10       10       14       15 </v>
   <v type="int" >       12       10       11       15       15 </v>
   <v type="int" >       12       10       14       15       15 </v>
   <v type="int" >       12       10       14       14       15 </v>
   <v type="int" >       12       31       32       34       44 </v>
   <v type="int" >       12       31       32       42       44 </v>
   <v type="int" >       12       31       41       42       44 </v>
   <v type="int" >       12       28       29       32       42 </v>
   <v type="int" >       12       28       31       32       42 </v>
   <v type="int" >       12       28       31       41       42 </v>
   <v type="int" >       12       28       29       39       42 </v>
   <v type="int" >       12       28       38       39       42 </v>
   <v type="int" >       12       28       38       41       42 </v>
   <v type="int" >       12       24       25       29       39 </v>
   <v type="int" >       12       24       28       29       39 </v>
   <v type="int" >       12       24       28       38       39 </v>
   <v type="int" >       12        9       10       10       14 </v>
   <v type="int" >       12        9        9       10       14 </v>
   <v type="int" >       12        9        9       13       14 </v>
   <v type="int" >       12        9       10       14       14 </v>
   <v type="int" >       12        9       13       14       14 </v>
   <v type="int" >       12        9       13       13       14 </v>
   <v type="int" >       12       27       28       31       41 </v>
   <v type="int" >       12       27       28       38       41 </v>
   <v type="int" >       12       27       37       38       41 </v>
   <v type="int" >       12       23       24       28       38 </v>
   <v type="int" >       12       23       27       28       38 </v>
   <v type="int" >       12       23       27       37       38 </v>
   <v type="int" >       12        8        9        9       13 </v>
   <v type="int" >       12        8        8        9       13 </v>
   <v type="int" >       12        8        8       12       13 </v>
   <v type="int" >       12        8        9       13       13 </v>
   <v type="int" >       12        8       12       13       13 </v>
   <v type="int" >       12        8       12       12       13 </v>
   <v type="int" >       12       22       23       27       37 </v>
   <v type="int" >       12        7        8        8       12 </v>
   <v type="int" >       12        7        7        8       12 </v>
   <v type="int" >       12        7        8       12       12 </v>
   <v type="int" >       12        2        2        2        3 </v>
   <v type="int" >       12        2        2        3        3 </v>
   <v type="int" >       12        2        3        3        3 </v>
   <v type="int" >       12       37       38       38       41 </v>
   <v type="int" >       12       38       38       41       41 </v>
   <v type="int" >       12       38       41       41       47 </v>
   <v type="int" >       12       38       39       41       42 </v>
   <v type="int" >       12       38       41       41       42 </v>
   <v type="int" >       12       41       41       42       47 </v>
   <v type="int" >       12       39       41       42       42 </v>
   <v type="int" >       24       41       42       42       48 </v>
   <v type="int" >       24       41       42       47       48 </v>
   <v type="int" >       12       39       40       42       43 </v>
   <v type="int" >       12       39       42       42       43 </v>
   <v type="int" >       12       42       42       43       48 </v>
   <v type="int" >       12       40       42       43       43 </v>
   <v type="int" >       12       42       43       43       49 </v>
   <v type="int" >       12       42       43       48       49 </v>
   <v type="int" >        6       40       40       43       43 </v>
   <v type="int" >       12       40       43       43       43 </v>
   <v type="int" >       12       43       43       43       49 </v>
   <v type="int" >        6       43       43       49       49 </v>
   <v type="int" >        6       12       12       13       13 </v>
   <v type="int" >       12       12       13       13       13 </v>
   <v type="int" >       12       13       13       13       16 </v>
   <v type="int" >        6       13       13       16       16 </v>
   <v type="int" >       12       41       42       44       47 </v>
   <v type="int" >       12       42       44       47       48 </v>
   <v type="int" >       12       44       47       48       50 </v>
   <v type="int" >       12       42       43       45       48 </v>
   <v type="int" >       12       42       44       45       48 </v>
   <v type="int" >       12       44       45       48       50 </v>
   <v type="int" >       12       43       45       48       49 </v>
   <v type="int" >       12       45       48       49       51 </v>
   <v type="int" >       12       45       48       50       51 </v>
   <v type="int" >       12       43       43       45       49 </v>
   <v type="int" >       12       43       45       45       49 </v>
   <v type="int" >       12       45       45       49       51 </v>
   <v type="int" >       12       43       45       49       49 </v>
   <v type="int" >       12       45       49       49       51 </v>
   <v type="int" >       12       45       49       51       51 </v>
   <v type="int" >       12       42       43       44       49 </v>
   <v type="int" >       12       43       44       45       49 </v>
   <v type="int" >       12       44       45       49       51 </v>
   <v type="int" >       12       42       44       48       49 </v>
   <v type="int" >       12       44       48       49       50 </v>
   <v type="int" >       12       44       49       50       51 </v>
   <v type="int" >       12       42       42       44       48 </v>
   <v type="int" >       12       42       44       48       50 </v>
   <v type="int" >       12       42       47       48       48 </v>
   <v type="int" >       12       42       48       48       50 </v>
   <v type="int" >       12       38       39       41       47 </v>
   <v type="int" >       12       39       41       42       47 </v>
   <v type="int" >       12       39       42       47       48 </v>
   <v type="int" >       12       13       13       14       16 </v>
   <v type="int" >       12       13       14       14       16 </v>
   <v type="int" >       12       14       14       16       17 </v>
   <v type="int" >       12       13       14       16       16 </v>
   <v type="int" >       12       14       16       16       17 </v>
   <v type="int" >       12       14       16       17       17 </v>
   <v type="int" >       12       44       45       46       50 </v>
   <v type="int" >       12       45       46       50       51 </v>
   <v type="int" >       12       46       50       51       52 </v>
   <v type="int" >       24       45       45       46       51 </v>
   <v type="int" >       12       45       46       46       51 </v>
   <v type="int" >       12       46       46       51       52 </v>
   <v type="int" >       12       45       46       51       51 </v>
   <v type="int" >       12       46       51       51       52 </v>
   <v type="int" >       12       46       51       52       52 </v>
   <v type="int" >       12       44       45       45       51 </v>
   <v type="int" >       12       45       46       51       52 </v>
   <v type="int" >       12       44       45       50       51 </v>
   <v type="int" >       12       45       50       51       51 </v>
   <v type="int" >       24       45       51       51       52 </v>
   <v type="int" >       12       42       43       44       50 </v>
   <v type="int" >       12       43       44       45       50 </v>
   <v type="int" >       12       43       45       50       51 </v>
   <v type="int" >       12       42       43       48       50 </v>
   <v type="int" >       12       43       48       49       50 </v>
   <v type="int" >       12       43       49       50       51 </v>
   <v type="int" >       12       39       40       42       48 </v>
   <v type="int" >       12       40       42       43       48 </v>
   <v type="int" >       12       40       43       48       49 </v>
   <v type="int" >       12       14       14       15       17 </v>
   <v type="int" >       12       14       15       15       17 </v>
   <v type="int" >       12       15       15       17       18 </v>
   <v type="int" >       12       14       15       17       17 </v>
   <v type="int" >       12       15       17       17       18 </v>
   <v type="int" >       12       15       17       18       18 </v>
   <v type="int" >       12       46       46       46       52 </v>
   <v type="int" >       12       46       46       52       52 </v>
   <v type="int" >       12       46       52       52       52 </v>
   <v type="int" >       12       45       45       46       52 </v>
   <v type="int" >       12       45       46       46       52 </v>
   <v type="int" >       12       45       46       52       52 </v>
   <v type="int" >       12       45       45       51       52 </v>
   <v type="int" >       12       45       51       52       52 </v>
   <v type="int" >       12       43       43       45       51 </v>
   <v type="int" >       12       43       45       45       51 </v>
   <v type="int" >       12       43       45       51       51 </v>
   <v type="int" >       12       43       43       49       51 </v>
   <v type="int" >       12       43       49       49       51 </v>
   <v type="int" >       12       43       49       51       51 </v>
   <v type="int" >       12       40       40       43       49 </v>
   <v type="int" >       12       40       43       43       49 </v>
   <v type="int" >       12       40       43       49       49 </v>
   <v type="int" >       24       15       15       15       18 </v>
   <v type="int" >       24       15       15       18       18 </v>
   <v type="int" >       24       15       18       18       18 </v>
   <v type="int" >       12       44       45       46       52 </v>
   <v type="int" >       12       44       45       51       52 </v>
   <v type="int" >       12       44       50       51       52 </v>
   <v type="int" >       12       42       43       45       51 </v>
   <v type="int" >       12       42       44       45       51 </v>
   <v type="int" >       12       42       44       50       51 </v>
   <v type="int" >       12       42       43       49       51 </v>
   <v type="int" >       12       42       48       49       51 </v>
   <v type="int" >       12       42       48       50       51 </v>
   <v type="int" >       12       39       40       43       49 </v>
   <v type="int" >       12       39       42       43       49 </v>
   <v type="int" >       12       39       42       48       49 </v>
   <v type="int" >       12       14       15       15       18 </v>
   <v type="int" >       12       14       14       15       18 </v>
   <v type="int" >       12       14       14       17       18 </v>
   <v type="int" >       12       14       15       18       18 </v>
   <v type="int" >       12       14       17       18       18 </v>
   <v type="int" >       12       14       17       17       18 </v>
   <v type="int" >       12       41       42       44       50 </v>
   <v type="int" >       12       41       42       48       50 </v>
   <v type="int" >       12       41       47       48       50 </v>
   <v type="int" >       12       38       39       42       48 </v>
   <v type="int" >       12       38       41       42       48 </v>
   <v type="int" >       12       38       41       47       48 </v>
   <v type="int" >       12       13       14       14       17 </v>
   <v type="int" >       12       13       13       14       17 </v>
   <v type="int" >       12       13       13       16       17 </v>
   <v type="int" >       12       13       14       17       17 </v>
   <v type="int" >       12       13       16       17       17 </v>
   <v type="int" >       12       13       16       16       17 </v>
   <v type="int" >       12       37       38       41       47 </v>
   <v type="int" >       12       12       13       13       16 </v>
   <v type="int" >       12       12       12       13       16 </v>
   <v type="int" >       12       12       13       16       16 </v>
   <v type="int" >       12        3        3        3        4 </v>
   <v type="int" >       12        3        3        4        4 </v>
   <v type="int" >       12        3        4        4        4 </v>
   <v type="int" >       12       47       48       48       50 </v>
   <v type="int" >       12       48       48       50       50 </v>
   <v type="int" >       12       48       50       50       53 </v>
   <v type="int" >       12       48       49       50       51 </v>
   <v type="int" >       12       48       50       50       51 </v>
   <v type="int" >       12       50       50       51       53 </v>
   <v type="int" >       12       49       50       51       51 </v>
   <v type="int" >       24       50       51       51       54 </v>
   <v type="int" >       24       50       51       53       54 </v>
   <v type="int" >        6       49       49       51       51 </v>
   <v type="int" >       12       49       51       51       51 </v>
   <v type="int" >       12       51       51       51       54 </v>
   <v type="int" >        6       51       51       54       54 </v>
   <v type="int" >        6       16       16       17       17 </v>
   <v type="int" >       12       16       17       17       17 </v>
   <v type="int" >       12       17       17       17       19 </v>
   <v type="int" >        6       17       17       19       19 </v>
   <v type="int" >       12       50       51       52       53 </v>
   <v type="int" >       12       51       52       53       54 </v>
   <v type="int" >       12       52       53       54       55 </v>
   <v type="int" >       24       51       51       52       54 </v>
   <v type="int" >       12       51       52       52       54 </v>
   <v type="int" >       12       52       52       54       55 </v>
   <v type="int" >       12       51       52       54       54 </v>
   <v type="int" >       12       52       54       54       55 </v>
   <v type="int" >       12       52       54       55       55 </v>
   <v type="int" >       12       51       52       54       55 </v>
   <v type="int" >       12       51       53       54       54 </v>
   <v type="int" >       24       51       54       54       55 </v>
   <v type="int" >       12       48       49       50       53 </v>
   <v type="int" >       12       49       50       51       53 </v>
   <v type="int" >       12       49       51       53       54 </v>
   <v type="int" >       12       17       17       18       19 </v>
   <v type="int" >       12       17       18       18       19 </v>
   <v type="int" >       12       18       18       19       20 </v>
   <v type="int" >       12       17       18       19       19 </v>
   <v type="int" >       12       18       19       19       20 </v>
   <v type="int" >       12       18       19       20       20 </v>
   <v type="int" >       12       52       52       52       55 </v>
   <v type="int" >       12       52       52       55       55 </v>
   <v type="int" >       12       52       55       55       55 </v>
   <v type="int" >       12       51       51       52       55 </v>
   <v type="int" >       12       51       52       52       55 </v>
   <v type="int" >       12       51       52       55       55 </v>
   <v type="int" >       12       51       51       54       55 </v>
   <v type="int" >       12       51       54       55       55 </v>
   <v type="int" >       12       49       49       51       54 </v>
   <v type="int" >       12       49       51       51       54 </v>
   <v type="int" >       12       49       51       54       54 </v>
   <v type="int" >       24       18       18       18       20 </v>
   <v type="int" >       24       18       18       20       20 </v>
   <v type="int" >       24       18       20       20       20 </v>
   <v type="int" >       12       50       51       52       55 </v>
   <v type="int" >       12       50       51       54       55 </v>
   <v type="int" >       12       50       53       54       55 </v>
   <v type="int" >       12       48       49       51       54 </v>
   <v type="int" >       12       48       50       51       54 </v>
   <v type="int" >       12       48       50       53       54 </v>
   <v type="int" >       12       17       18       18       20 </v>
   <v type="int" >       12       17       17       18       20 </v>
   <v type="int" >       12       17       17       19       20 </v>
   <v type="int" >       12       17       18       20       20 </v>
   <v type="int" >       12       17       19       20       20 </v>
   <v type="int" >       12       17       19       19       20 </v>
   <v type="int" >       12       47       48       50       53 </v>
   <v type="int" >       12       16       17       17       19 </v>
   <v type="int" >       12       16       16       17       19 </v>
   <v type="int" >       12       16       17       19       19 </v>
   <v type="int" >       12        4        4        4        5 </v>
   <v type="int" >       12        4        4        5        5 </v>
   <v type="int" >       12        4        5        5        5 </v>
   <v type="int" >       12       53       54       54       55 </v>
   <v type="int" >       18       54       54       55       55 </v>
   <v type="int" >       24       54       55       55       56 </v>
   <v type="int" >       12       54       55       55       55 </v>
   <v type="int" >       24       55       55       55       56 </v>
   <v type="int" >       18       55       55       56       56 </v>
   <v type="int" >        6       19       19       20       20 </v>
   <v type="int" >       12       19       20       20       20 </v>
   <v type="int" >       36       20       20       20       21 </v>
   <v type="int" >       30       20       20       21       21 </v>
   <v type="int" >       12       55       56       56       56 </v>
   <v type="int" >       12       54       54       55       56 </v>
   <v type="int" >       12       54       55       56       56 </v>
   <v type="int" >       24       20       21       21       21 </v>
   <v type="int" >       12       53       54       55       56 </v>
   <v type="int" >       12       19       20       20       21 </v>
   <v type="int" >       12       19       19       20       21 </v>
   <v type="int" >       12       19       20       21       21 </v>
   <v type="int" >       12        5        5        5        6 </v>
   <v type="int" >       12        5        5        6        6 </v>
   <v type="int" >       12        5        6        6        6 </v>
   <v type="int" >        6       56       56       56       56 </v>
   <v type="int" >       18       21       21       21       21 </v>
   <v type="int" >       18        6        6        6        6 </v>
   <v type="int" >        6        1        1        1        1 </v>
  </varray>
  <i name="volumeweight">      0.00009645 </i>
 </kpoints>
 <parameters>
  <separator name="general" >
   <i type="string" name="SYSTEM">unknown system</i>
   <i type="logical" name="LCOMPAT"> F  </i>
  </separator>
  <separator name="electronic" >
   <i type="string" name="PREC">accura</i>
   <i name="ENMAX">    300.00000000</i>
   <i name="ENAUG">    402.10800000</i>
   <i name="EDIFF">      0.00000001</i>
   <i type="int" name="IALGO">    38</i>
   <i type="int" name="IWAVPR">    11</i>
   <i type="int" name="NBANDS">    10</i>
   <i name="NELECT">     12.00000000</i>
   <i type="int" name="TURBO">     0</i>
   <i type="int" name="IRESTART">     0</i>
   <i type="int" name="NREBOOT">     0</i>
   <i type="int" name="NMIN">     0</i>
   <i name="EREF">      0.00000000</i>
   <separator name="electronic smearing" >
    <i type="int" name="ISMEAR">    -5</i>
    <i name="SIGMA">      0.20000000</i>
    <i name="KSPACING">      0.50000000</i>
    <i type="logical" name="KGAMMA"> T  </i>
   </separator>
   <separator name="electronic projectors" >
    <i type="logical" name="LREAL"> F  </i>
    <v name="ROPT">      0.00000000</v>
    <i type="int" name="LMAXPAW">  -100</i>
    <i type="int" name="LMAXMIX">     2</i>
    <i type="logical" name="NLSPLINE"> F  </i>
   </separator>
   <separator name="electronic startup" >
    <i type="int" name="ISTART">     0</i>
    <i type="int" name="ICHARG">     2</i>
    <i type="int" name="INIWAV">     1</i>
   </separator>
   <separator name="electronic spin" >
    <i type="int" name="ISPIN">     1</i>
    <i type="logical" name="LNONCOLLINEAR"> F  </i>
    <v name="MAGMOM">      1.00000000      1.00000000</v>
    <i name="NUPDOWN">     -1.00000000</i>
    <i type="logical" name="LSORBIT"> F  </i>
    <v name="SAXIS">      0.00000000      0.00000000      1.00000000</v>
    <i type="logical" name="LSPIRAL"> F  </i>
    <v name="QSPIRAL">      0.00000000      0.00000000      0.00000000</v>
    <i type="logical" name="LZEROZ"> F  </i>
   </separator>
   <separator name="electronic exchange-correlation" >
    <i type="logical" name="LASPH"> F  </i>
    <i type="logical" name="LMETAGGA"> F  </i>
   </separator>
   <separator name="electronic convergence" >
    <i type="int" name="NELM">    60</i>
    <i type="int" name="NELMDL">    -5</i>
    <i type="int" name="NELMIN">     2</i>
    <i name="ENINI">    300.00000000</i>
    <separator name="electronic convergence detail" >
     <i type="logical" name="LDIAG"> T  </i>
     <i type="logical" name="LSUBROT"> F  </i>
     <i name="WEIMIN">      0.00100000</i>
     <i name="EBREAK">      0.00000000</i>
     <i name="DEPER">      0.30000000</i>
     <i type="int" name="NRMM">     4</i>
     <i name="TIME">      0.40000000</i>
    </separator>
   </separator>
   <separator name="electronic mixer" >
    <i name="AMIX">      0.40000000</i>
    <i name="BMIX">      1.00000000</i>
    <i name="AMIN">      0.10000000</i>
    <i name="AMIX_MAG">      1.60000000</i>
    <i name="BMIX_MAG">      1.00000000</i>
    <separator name="electronic mixer details" >
     <i type="int" name="IMIX">     4</i>
     <i type="logical" name="MIXFIRST"> F  </i>
     <i type="int" name="MAXMIX">   -45</i>
     <i name="WC">    100.00000000</i>
     <i type="int" name="INIMIX">     1</i>
     <i type="int" name="MIXPRE">     1</i>
     <i type="int" name="MREMOVE">     5</i>
    </separator>
   </separator>
   <separator name="electronic dipolcorrection" >
    <i type="logical" name="LDIPOL"> F  </i>
    <i type="logical" name="LMONO"> F  </i>
    <i type="int" name="IDIPOL">     0</i>
    <i name="EPSILON">      1.00000000</i>
    <v name="DIPOL">   -100.00000000   -100.00000000   -100.00000000</v>
    <i name="EFIELD">      0.00000000</i>
   </separator>
  </separator>
  <separator name="grids" >
   <i type="int" name="NGX">    14</i>
   <i type="int" name="NGY">    14</i>
   <i type="int" name="NGZ">    14</i>
   <i type="int" name="NGXF">    28</i>
   <i type="int" name="NGYF">    28</i>
   <i type="int" name="NGZF">    28</i>
   <i type="logical" name="ADDGRID"> T  </i>
  </separator>
  <separator name="ionic" >
   <i type="int" name="NSW">    11</i>
   <i type="int" name="IBRION">     2</i>
   <i type="int" name="MDALGO">     0</i>
   <i type="int" name="ISIF">     2</i>
   <i name="PSTRESS">      0.00000000</i>
   <i name="EDIFFG">      0.00000010</i>
   <i type="int" name="NFREE">     1</i>
   <i name="POTIM">      0.50000000</i>
   <i name="SMASS">     -3.00000000</i>
   <i name="SCALEE">      1.00000000</i>
  </separator>
  <separator name="ionic md" >
   <i name="TEBEG">      0.00010000</i>
   <i name="TEEND">      0.00010000</i>
   <i type="int" name="NBLOCK">     1</i>
   <i type="int" name="KBLOCK">    11</i>
   <i type="int" name="NPACO">   256</i>
   <i name="APACO">     16.00000000</i>
  </separator>
  <separator name="symmetry" >
   <i type="int" name="ISYM">     2</i>
   <i name="SYMPREC">      0.00001000</i>
  </separator>
  <separator name="dos" >
   <i type="int" name="LORBIT">     0</i>
   <v name="RWIGS">     -1.00000000</v>
   <i type="int" name="NEDOS">   301</i>
   <i name="EMIN">     10.00000000</i>
   <i name="EMAX">    -10.00000000</i>
   <i name="EFERMI">      0.00000000</i>
  </separator>
  <separator name="writing" >
   <i type="int" name="NWRITE">     2</i>
   <i type="logical" name="LWAVE"> F  </i>
   <i type="logical" name="LDOWNSAMPLE"> F  </i>
   <i type="logical" name="LCHARG"> F  </i>
   <i type="logical" name="LPARD"> F  </i>
   <i type="logical" name="LVTOT"> F  </i>
   <i type="logical" name="LVHAR"> F  </i>
   <i type="logical" name="LELF"> F  </i>
   <i type="logical" name="LOPTICS"> F  </i>
   <v name="STM">      0.00000000      0.00000000      0.00000000      0.00000000      0.00000000      0.00000000      0.00000000</v>
  </separator>
  <separator name="performance" >
   <i type="int" name="NPAR">     1</i>
   <i type="int" name="NSIM">     4</i>
   <i type="int" name="NBLK">    -1</i>
   <i type="logical" name="LPLANE"> T  </i>
   <i type="logical" name="LSCALAPACK"> T  </i>
   <i type="logical" name="LSCAAWARE"> F  </i>
   <i type="logical" name="LSCALU"> F  </i>
   <i type="logical" name="LASYNC"> F  </i>
   <i type="logical" name="LORBITALREAL"> F  </i>
  </separator>
  <separator name="miscellaneous" >
   <i type="int" name="IDIOT">     3</i>
   <i type="int" name="ISPECIAL">     0</i>
   <i type="logical" name="LMUSIC"> F  </i>
   <v name="POMASS">     51.99600000</v>
   <v name="DARWINR">      0.00000000</v>
   <v name="DARWINV">      1.00000000</v>
   <i type="logical" name="LCORR"> T  </i>
  </separator>
  <i type="logical" name="GGA_COMPAT"> T  </i>
  <i type="logical" name="LBERRY"> F  </i>
  <i type="int" name="ICORELEVEL">     0</i>
  <i type="logical" name="LDAU"> F  </i>
  <i type="int" name="I_CONSTRAINED_M">     0</i>
  <separator name="electronic exchange-correlation" >
   <i type="string" name="GGA">--</i>
   <i type="int" name="VOSKOWN">     0</i>
   <i type="logical" name="LHFCALC"> F  </i>
   <i type="string" name="PRECFOCK"></i>
   <i type="logical" name="LSYMGRAD"> F  </i>
   <i type="logical" name="LHFONE"> F  </i>
   <i type="logical" name="LRHFCALC"> F  </i>
   <i type="logical" name="LTHOMAS"> F  </i>
   <i type="logical" name="LMODELHF"> F  </i>
   <i name="ENCUT4O">     -1.00000000</i>
   <i type="int" name="EXXOEP">     0</i>
   <i type="int" name="FOURORBIT">     0</i>
   <i name="AEXX">      0.00000000</i>
   <i name="HFALPHA">      0.00000000</i>
   <i name="MCALPHA">      0.00000000</i>
   <i name="ALDAX">      1.00000000</i>
   <i name="AGGAX">      1.00000000</i>
   <i name="ALDAC">      1.00000000</i>
   <i name="AGGAC">      1.00000000</i>
   <i type="int" name="NKREDX">     1</i>
   <i type="int" name="NKREDY">     1</i>
   <i type="int" name="NKREDZ">     1</i>
   <i type="logical" name="SHIFTRED"> F  </i>
   <i type="logical" name="ODDONLY"> F  </i>
   <i type="logical" name="EVENONLY"> F  </i>
   <i type="int" name="LMAXFOCK">     0</i>
   <i type="int" name="NMAXFOCKAE">     0</i>
   <i type="logical" name="LFOCKAEDFT"> F  </i>
   <i name="HFSCREEN">      0.00000000</i>
   <i name="HFSCREENC">      0.00000000</i>
   <i type="int" name="NBANDSGWLOW">     0</i>
  </separator>
  <separator name="vdW DFT" >
   <i type="logical" name="LUSE_VDW"> F  </i>
   <i name="Zab_VDW">     -0.84910000</i>
   <i name="PARAM1">      0.12340000</i>
   <i name="PARAM2">      1.00000000</i>
   <i name="PARAM3">      0.00000000</i>
  </separator>
  <separator name="model GW" >
   <i type="int" name="MODEL_GW">     0</i>
   <i name="MODEL_EPS0">      3.93149160</i>
   <i name="MODEL_ALPHA">      1.00000000</i>
  </separator>
  <separator name="linear response parameters" >
   <i type="logical" name="LEPSILON"> F  </i>
   <i type="logical" name="LRPA"> F  </i>
   <i type="logical" name="LNABLA"> F  </i>
   <i type="logical" name="LVEL"> F  </i>
   <i type="int" name="KINTER">     0</i>
   <i name="CSHIFT">      0.10000000</i>
   <i name="OMEGAMAX">     -1.00000000</i>
   <i name="DEG_THRESHOLD">      0.00200000</i>
   <i name="RTIME">     -0.10000000</i>
   <i name="WPLASMAI">      0.00000000</i>
   <v name="DFIELD">      0.00000000      0.00000000      0.00000000</v>
   <v name="WPLASMA">      0.00000000      0.00000000      0.00000000      0.00000000      0.00000000      0.00000000      0.00000000      0.00000000      0.00000000</v>
  </separator>
  <separator name="orbital magnetization" >
   <i type="logical" name="NUCIND"> F  </i>
   <v name="MAGPOS">      0.00000000      0.00000000      0.00000000</v>
   <i type="logical" name="LNICSALL"> T  </i>
   <i type="logical" name="ORBITALMAG"> F  </i>
   <i type="logical" name="LMAGBLOCH"> F  </i>
   <i type="logical" name="LCHIMAG"> F  </i>
   <i type="logical" name="LGAUGE"> T  </i>
   <i type="int" name="MAGATOM">     0</i>
   <v name="MAGDIPOL">      0.00000000      0.00000000      0.00000000</v>
   <v name="AVECCONST">      0.00000000      0.00000000      0.00000000</v>
  </separator>
  <separator name="response functions" >
   <i type="logical" name="LADDER"> F  </i>
   <i type="logical" name="LRPAFORCE"> F  </i>
   <i type="logical" name="LFXC"> F  </i>
   <i type="logical" name="LHARTREE"> T  </i>
   <i type="int" name="IBSE">     0</i>
   <v type="int" name="KPOINT">    -1     0     0     0</v>
   <i type="logical" name="LTCTE"> F  </i>
   <i type="logical" name="LTETE"> F  </i>
   <i type="logical" name="LTRIPLET"> F  </i>
   <i type="logical" name="LFXCEPS"> F  </i>
   <i type="logical" name="LFXHEG"> F  </i>
   <i type="int" name="NATURALO">     2</i>
   <i type="logical" name="L2ORDER"> F  </i>
   <i type="logical" name="LMP2LT"> F  </i>
   <i type="logical" name="LUSEW"> F  </i>
   <i name="ENCUTGW">     -2.00000000</i>
   <i name="ENCUTGWSOFT">     -2.00000000</i>
   <i name="ENCUTLF">     -1.00000000</i>
   <i type="int" name="LMAXMP2">    -1</i>
   <i name="SCISSOR">      0.00000000</i>
   <i type="int" name="NOMEGA">     0</i>
   <i type="int" name="NOMEGAR">     0</i>
   <i type="int" name="NBANDSGW">    -1</i>
   <i type="int" name="NBANDSO">    -1</i>
   <i type="int" name="NBANDSV">    -1</i>
   <i type="int" name="NELM">     1</i>
   <i type="int" name="NELMHF">     1</i>
   <i type="int" name="DIM">     3</i>
   <i type="int" name="ANTIRES">     0</i>
   <i name="OMEGAMAX">    -30.00000000</i>
   <i name="OMEGAMIN">    -30.00000000</i>
   <i name="OMEGATL">   -200.00000000</i>
   <i type="int" name="OMEGAGRID">   140</i>
   <i name="CSHIFT">     -0.10000000</i>
   <i type="logical" name="SELFENERGY"> F  </i>
   <i type="logical" name="LSPECTRAL"> F  </i>
   <i type="logical" name="LSPECTRALGW"> F  </i>
   <i type="logical" name="LSINGLES"> F  </i>
   <i type="logical" name="LFERMIGW"> F  </i>
   <i type="logical" name="ODDONLYGW"> F  </i>
   <i type="logical" name="EVENONLYGW"> F  </i>
   <i type="int" name="NKREDLFX">     1</i>
   <i type="int" name="NKREDLFY">     1</i>
   <i type="int" name="NKREDLFZ">     1</i>
   <i type="int" name="MAXMEM">  2800</i>
   <i type="int" name="TELESCOPE">     0</i>
   <i type="int" name="TAUPAR">     1</i>
   <i type="int" name="OMEGAPAR">    -1</i>
   <i name="LAMBDA">      1.00000000</i>
  </separator>
  <separator name="External order field" >
   <i name="OFIELD_KAPPA">      0.00000000</i>
   <v name="OFIELD_K">      0.00000000      0.00000000      0.00000000</v>
   <i name="OFIELD_Q6_NEAR">      0.00000000</i>
   <i name="OFIELD_Q6_FAR">      0.00000000</i>
   <i name="OFIELD_A">      0.00000000</i>
  </separator>
 </parameters>
 <atominfo>
  <atoms>       2 </atoms>
  <types>       1 </types>
  <array name="atoms" >
   <dimension dim="1">ion</dimension>
   <field type="string">element</field>
   <field type="int">atomtype</field>
   <set>
    <rc><c>Cr</c><c>   1</c></rc>
    <rc><c>Cr</c><c>   1</c></rc>
   </set>
  </array>
  <array name="atomtypes" >
   <dimension dim="1">type</dimension>
   <field type="int">atomspertype</field>
   <field type="string">element</field>
   <field>mass</field>
   <field>valence</field>
   <field type="string">pseudopotential</field>
   <set>
    <rc><c>   2</c><c>Cr</c><c>     51.99600000</c><c>      6.00000000</c><c>  PAW_PBE Cr 06Sep2000                  </c></rc>
   </set>
  </array>
 </atominfo>
 <structure name="initialpos" >
  <crystal>
   <varray name="basis" >
    <v>       2.35764656       0.00000000       0.00000000 </v>
    <v>       0.00000000       2.35764656       0.00000000 </v>
    <v>       0.00000000       0.00000000       2.35764656 </v>
   </varray>
   <i name="volume">     13.10497200 </i>
   <varray name="rec_basis" >
    <v>       0.42415179       0.00000000       0.00000000 </v>
    <v>       0.00000000       0.42415179       0.00000000 </v>
    <v>       0.00000000       0.00000000       0.42415179 </v>
   </varray>
  </crystal>
  <varray name="positions" >
   <v>       0.00000000       0.00000000       0.00000000 </v>
   <v>       0.50000000       0.50000000       0.50000000 </v>
  </varray>
 </structure>
 <calculation>
  <scstep>
   <time name="dav">    0.04    0.07</time>
   <time name="total">    0.10    0.14</time>
   <energy>
    <i name="alphaZ">    126.15118654 </i>
    <i name="ewald">   -800.18387015 </i>
    <i name="hartreedc">    -36.21658786 </i>
    <i name="XCdc">    -35.45540263 </i>
    <i name="pawpsdc">    555.30997384 </i>
    <i name="pawaedc">   -515.76403743 </i>
    <i name="eentropy">      0.00000000 </i>
    <i name="bandstr">    206.91469939 </i>
    <i name="atom">    553.74622060 </i>
    <i name="e_fr_energy">     54.50218230 </i>
    <i name="e_wo_entrp">     54.50218230 </i>
    <i name="e_0_energy">     54.50218230 </i>
   </energy>
  </scstep>
  <scstep>
   <time name="dav">    0.04    0.04</time>
   <time name="total">    0.05    0.05</time>
   <energy>
    <i name="e_fr_energy">     -8.98139747 </i>
    <i name="e_wo_entrp">     -8.98139747 </i>
    <i name="e_0_energy">     -8.98139747 </i>
   </energy>
  </scstep>
  <scstep>
   <time name="dav">    0.04    0.04</time>
   <time name="total">    0.06    0.06</time>
   <energy>
    <i name="e_fr_energy">    -11.85234046 </i>
    <i name="e_wo_entrp">    -11.85234046 </i>
    <i name="e_0_energy">    -11.85234046 </i>
   </energy>
  </scstep>
  <scstep>
   <time name="dav">    0.04    0.04</time>
   <time name="total">    0.05    0.05</time>
   <energy>
    <i name="e_fr_energy">    -11.92692061 </i>
    <i name="e_wo_entrp">    -11.92692061 </i>
    <i name="e_0_energy">    -11.92692061 </i>
   </energy>
  </scstep>
  <scstep>
   <time name="dav">    0.04    0.04</time>
   <time name="total">    0.09    0.09</time>
   <energy>
[...]
       <r>   11.7390    1.0000 </r>
       <r>   11.7390    1.0000 </r>
       <r>   12.5692    1.0000 </r>
       <r>   18.3255    0.0000 </r>
       <r>   18.3255    0.0000 </r>
       <r>   18.9492    0.0000 </r>
       <r>   18.9492    0.0000 </r>
      </set>
      <set comment="kpoint 48">
       <r>   10.0523    1.0000 </r>
       <r>   10.5447    1.0000 </r>
       <r>   11.1054    1.0000 </r>
       <r>   11.6192    1.0000 </r>
       <r>   12.9863    1.0000 </r>
       <r>   13.4098    1.0000 </r>
       <r>   18.2250    0.0000 </r>
       <r>   18.3861    0.0000 </r>
       <r>   18.7702    0.0000 </r>
       <r>   19.2859    0.0000 </r>
      </set>
      <set comment="kpoint 49">
       <r>    9.8758    1.0000 </r>
       <r>   10.0509    1.0000 </r>
       <r>   11.2240    1.0000 </r>
       <r>   11.4228    1.0000 </r>
       <r>   13.8684    1.0000 </r>
       <r>   14.0150    1.0000 </r>
       <r>   18.1301    0.0000 </r>
       <r>   18.1425    0.0000 </r>
       <r>   19.1355    0.0000 </r>
       <r>   19.3262    0.0000 </r>
      </set>
      <set comment="kpoint 50">
       <r>    9.8494    1.0000 </r>
       <r>   10.6587    1.0000 </r>
       <r>   10.8091    1.0000 </r>
       <r>   11.7830    1.0000 </r>
       <r>   13.5228    1.0002 </r>
       <r>   13.8719    1.0021 </r>
       <r>   18.5181    0.0000 </r>
       <r>   18.5218    0.0000 </r>
       <r>   18.8022    0.0000 </r>
       <r>   19.1800    0.0000 </r>
      </set>
      <set comment="kpoint 51">
       <r>    9.8751    1.0000 </r>
       <r>   10.1876    1.0000 </r>
       <r>   11.0271    1.0000 </r>
       <r>   11.4127    1.0000 </r>
       <r>   14.2546    1.0028 </r>
       <r>   14.3863    1.0099 </r>
       <r>   18.5076    0.0000 </r>
       <r>   18.5288    0.0000 </r>
       <r>   19.0334    0.0000 </r>
       <r>   19.1764    0.0000 </r>
      </set>
      <set comment="kpoint 52">
       <r>   10.0369    1.0000 </r>
       <r>   10.3007    1.0000 </r>
       <r>   10.6866    1.0000 </r>
       <r>   10.9847    1.0000 </r>
       <r>   14.8558    1.0227 </r>
       <r>   14.9132    1.0282 </r>
       <r>   18.7001    0.0000 </r>
       <r>   18.7215    0.0000 </r>
       <r>   19.0209    0.0000 </r>
       <r>   19.0886    0.0000 </r>
      </set>
      <set comment="kpoint 53">
       <r>    9.9785    1.0000 </r>
       <r>   11.0367    1.0000 </r>
       <r>   11.0367    1.0000 </r>
       <r>   12.7857    1.0000 </r>
       <r>   12.7857    1.0000 </r>
       <r>   13.4901    1.0000 </r>
       <r>   18.8113    0.0000 </r>
       <r>   18.8113    0.0000 </r>
       <r>   18.8916    0.0000 </r>
       <r>   18.8916    0.0000 </r>
      </set>
      <set comment="kpoint 54">
       <r>   10.2324    1.0000 </r>
       <r>   10.6682    1.0000 </r>
       <r>   11.4561    1.0000 </r>
       <r>   12.0588    1.0000 </r>
       <r>   13.5281    1.0000 </r>
       <r>   13.6854    1.0000 </r>
       <r>   18.7994    0.0000 </r>
       <r>   18.8021    0.0000 </r>
       <r>   19.0225    0.0000 </r>
       <r>   19.0637    0.0000 </r>
      </set>
      <set comment="kpoint 55">
       <r>   10.6454    1.0000 </r>
       <r>   11.0570    1.0000 </r>
       <r>   11.3108    1.0000 </r>
       <r>   11.8107    1.0000 </r>
       <r>   13.5844    1.0000 </r>
       <r>   13.6635    1.0000 </r>
       <r>   18.9336    0.0000 </r>
       <r>   18.9361    0.0000 </r>
       <r>   19.0579    0.0000 </r>
       <r>   19.0720    0.0000 </r>
      </set>
      <set comment="kpoint 56">
       <r>   11.2029    1.0000 </r>
       <r>   11.6567    1.0000 </r>
       <r>   11.6567    1.0000 </r>
       <r>   12.5034    1.0000 </r>
       <r>   12.5034    1.0000 </r>
       <r>   12.8894    1.0000 </r>
       <r>   19.0777    0.0000 </r>
       <r>   19.0777    0.0000 </r>
       <r>   19.0789    0.0000 </r>
       <r>   19.0789    0.0000 </r>
      </set>
     </set>
    </set>
   </array>
  </eigenvalues>
  <separator name="orbital magnetization" >
   <v name="MAGDIPOLOUT">      0.00000000      0.00000000      0.00000000</v>
  </separator>
  <dos>
   <i name="efermi">     16.10191163 </i>
   <total>
    <array>
     <dimension dim="1">gridpoints</dimension>
     <dimension dim="2">spin</dimension>
     <field>energy</field>
     <field>total</field>
     <field>integrated</field>
     <set>
      <set comment="spin 1">
       <r>     4.3810     0.0000     0.0000 </r>
       <r>     4.4445     0.0000     0.0000 </r>
       <r>     4.5079     0.0000     0.0000 </r>
       <r>     4.5714     0.0000     0.0000 </r>
       <r>     4.6348     0.0000     0.0000 </r>
       <r>     4.6983     0.0000     0.0000 </r>
       <r>     4.7617     0.0000     0.0000 </r>
       <r>     4.8252     0.0000     0.0000 </r>
       <r>     4.8887     0.0000     0.0000 </r>
       <r>     4.9521     0.0000     0.0000 </r>
       <r>     5.0156     0.0000     0.0000 </r>
       <r>     5.0790     0.0000     0.0000 </r>
       <r>     5.1425     0.0000     0.0000 </r>
       <r>     5.2059     0.0000     0.0000 </r>
       <r>     5.2694     0.0000     0.0000 </r>
       <r>     5.3329     0.0000     0.0000 </r>
       <r>     5.3963     0.0000     0.0000 </r>
       <r>     5.4598     0.0000     0.0000 </r>
       <r>     5.5232     0.0000     0.0000 </r>
       <r>     5.5867     0.0000     0.0000 </r>
       <r>     5.6502     0.0000     0.0000 </r>
       <r>     5.7136     0.0000     0.0000 </r>
       <r>     5.7771     0.0000     0.0000 </r>
       <r>     5.8405     0.0000     0.0000 </r>
       <r>     5.9040     0.0000     0.0000 </r>
       <r>     5.9674     0.0000     0.0000 </r>
       <r>     6.0309     0.0000     0.0000 </r>
       <r>     6.0944     0.0000     0.0000 </r>
       <r>     6.1578     0.0000     0.0000 </r>
       <r>     6.2213     0.0000     0.0000 </r>
       <r>     6.2847     0.0000     0.0000 </r>
       <r>     6.3482     0.0000     0.0000 </r>
       <r>     6.4116     0.0436     0.0035 </r>
       <r>     6.4751     0.0583     0.0068 </r>
       <r>     6.5386     0.0745     0.0110 </r>
       <r>     6.6020     0.0923     0.0163 </r>
       <r>     6.6655     0.0931     0.0227 </r>
       <r>     6.7289     0.1030     0.0289 </r>
       <r>     6.7924     0.1131     0.0358 </r>
       <r>     6.8558     0.1234     0.0433 </r>
       <r>     6.9193     0.1340     0.0515 </r>
       <r>     6.9828     0.1409     0.0602 </r>
       <r>     7.0462     0.1489     0.0694 </r>
       <r>     7.1097     0.1586     0.0791 </r>
       <r>     7.1731     0.1685     0.0895 </r>
       <r>     7.2366     0.1742     0.1005 </r>
       <r>     7.3000     0.1813     0.1117 </r>
       <r>     7.3635     0.1881     0.1235 </r>
       <r>     7.4270     0.1945     0.1356 </r>
       <r>     7.4904     0.2165     0.1497 </r>
       <r>     7.5539     0.2277     0.1638 </r>
       <r>     7.6173     0.2417     0.1786 </r>
       <r>     7.6808     0.3758     0.2031 </r>
       <r>     7.7443     0.4317     0.2287 </r>
       <r>     7.8077     0.4922     0.2580 </r>
       <r>     7.8712     0.5573     0.2913 </r>
       <r>     7.9346     0.6256     0.3288 </r>
       <r>     7.9981     0.6758     0.3705 </r>
       <r>     8.0615     0.7111     0.4143 </r>
       <r>     8.1250     0.7617     0.4609 </r>
       <r>     8.1885     0.8152     0.5110 </r>
       <r>     8.2519     0.8464     0.5634 </r>
       <r>     8.3154     0.8986     0.6187 </r>
       <r>     8.3788     0.9536     0.6775 </r>
       <r>     8.4423     1.0105     0.7398 </r>
       <r>     8.5057     1.0720     0.8058 </r>
       <r>     8.5692     1.1440     0.8761 </r>
       <r>     8.6327     1.3285     0.9540 </r>
       <r>     8.6961     1.3487     1.0455 </r>
       <r>     8.7596     1.3587     1.1307 </r>
       <r>     8.8230     1.3973     1.2179 </r>
       <r>     8.8865     1.4279     1.3076 </r>
       <r>     8.9499     1.4540     1.3991 </r>
       <r>     9.0134     1.4754     1.4921 </r>
       <r>     9.0769     1.4957     1.5863 </r>
       <r>     9.1403     1.5327     1.6823 </r>
       <r>     9.2038     1.6107     1.7818 </r>
       <r>     9.2672     1.6531     1.8854 </r>
       <r>     9.3307     1.6923     1.9916 </r>
       <r>     9.3942     1.7316     2.1001 </r>
       <r>     9.4576     1.7846     2.2117 </r>
       <r>     9.5211     1.8409     2.3267 </r>
       <r>     9.5845     2.0160     2.4481 </r>
       <r>     9.6480     1.9102     2.5744 </r>
       <r>     9.7114     2.0024     2.6979 </r>
       <r>     9.7749     2.1180     2.8294 </r>
       <r>     9.8384     2.2121     2.9667 </r>
       <r>     9.9018     2.4442     3.1227 </r>
       <r>     9.9653     2.3448     3.2753 </r>
       <r>    10.0287     2.1707     3.4186 </r>
       <r>    10.0922     1.9716     3.5504 </r>
       <r>    10.1556     1.8558     3.6724 </r>
       <r>    10.2191     1.6309     3.7830 </r>
       <r>    10.2826     1.4835     3.8814 </r>
       <r>    10.3460     1.3624     3.9717 </r>
       <r>    10.4095     1.2182     4.0553 </r>
       <r>    10.4729     1.5539     4.1548 </r>
       <r>    10.5364     1.7231     4.2662 </r>
       <r>    10.5998     1.9606     4.3820 </r>
       <r>    10.6633     1.9933     4.5058 </r>
       <r>    10.7268     2.0573     4.6364 </r>
       <r>    10.7902     2.0533     4.7648 </r>
       <r>    10.8537     2.2657     4.9013 </r>
       <r>    10.9171     2.5639     5.0547 </r>
       <r>    10.9806     2.8119     5.2252 </r>
       <r>    11.0441     3.1356     5.4126 </r>
       <r>    11.1075     2.9836     5.6157 </r>
       <r>    11.1710     2.7262     5.7960 </r>
       <r>    11.2344     2.5552     5.9663 </r>
       <r>    11.2979     2.3728     6.1247 </r>
       <r>    11.3613     2.2679     6.2751 </r>
       <r>    11.4248     2.0389     6.4149 </r>
       <r>    11.4883     1.9313     6.5401 </r>
       <r>    11.5517     1.6086     6.6454 </r>
       <r>    11.6152     1.5244     6.7449 </r>
       <r>    11.6786     1.4145     6.8409 </r>
       <r>    11.7421     1.4286     6.9348 </r>
       <r>    11.8055     1.3940     7.0237 </r>
       <r>    11.8690     1.4151     7.1141 </r>
       <r>    11.9325     1.3619     7.2023 </r>
       <r>    11.9959     1.2953     7.2867 </r>
       <r>    12.0594     1.1949     7.3660 </r>
       <r>    12.1228     1.0776     7.4385 </r>
       <r>    12.1863     0.9902     7.5045 </r>
       <r>    12.2497     0.8986     7.5644 </r>
       <r>    12.3132     0.7208     7.6187 </r>
       <r>    12.3767     0.6012     7.6607 </r>
       <r>    12.4401     0.5925     7.6985 </r>
       <r>    12.5036     0.5888     7.7383 </r>
       <r>    12.5670     0.6033     7.7761 </r>
       <r>    12.6305     0.6274     7.8151 </r>
       <r>    12.6939     0.6673     7.8560 </r>
       <r>    12.7574     0.7309     7.8999 </r>
       <r>    12.8209     0.7903     7.9497 </r>
       <r>    12.8843     0.8190     8.0008 </r>
       <r>    12.9478     0.8778     8.0561 </r>
       <r>    13.0112     0.9463     8.1136 </r>
       <r>    13.0747     1.0299     8.1763 </r>
       <r>    13.1382     1.3038     8.2465 </r>
       <r>    13.2016     1.4149     8.3355 </r>
       <r>    13.2651     1.5206     8.4286 </r>
       <r>    13.3285     1.6313     8.5286 </r>
       <r>    13.3920     1.7428     8.6357 </r>
       <r>    13.4554     2.1104     8.7576 </r>
       <r>    13.5189     2.9653     8.9204 </r>
       <r>    13.5824     2.6140     9.1015 </r>
       <r>    13.6458     2.2296     9.2597 </r>
       <r>    13.7093     1.8611     9.3970 </r>
       <r>    13.7727     1.6231     9.5046 </r>
       <r>    13.8362     1.7155     9.6099 </r>
       <r>    13.8996     1.9994     9.7268 </r>
       <r>    13.9631     1.6979     9.8534 </r>
       <r>    14.0266     1.5837     9.9584 </r>
       <r>    14.0900     1.4674    10.0537 </r>
       <r>    14.1535     1.3491    10.1412 </r>
       <r>    14.2169     1.2996    10.2253 </r>
       <r>    14.2804     1.2339    10.3057 </r>
       <r>    14.3438     1.1861    10.3829 </r>
       <r>    14.4073     1.0764    10.4592 </r>
       <r>    14.4708     1.0190    10.5252 </r>
       <r>    14.5342     1.0065    10.5895 </r>
       <r>    14.5977     1.0377    10.6553 </r>
       <r>    14.6611     1.0171    10.7205 </r>
       <r>    14.7246     0.9972    10.7844 </r>
       <r>    14.7881     0.9778    10.8471 </r>
       <r>    14.8515     0.8509    10.9079 </r>
       <r>    14.9150     0.8321    10.9613 </r>
       <r>    14.9784     0.8171    11.0136 </r>
       <r>    15.0419     0.8344    11.0688 </r>
       <r>    15.1053     0.8308    11.1216 </r>
       <r>    15.1688     0.8288    11.1743 </r>
       <r>    15.2323     0.7976    11.2262 </r>
       <r>    15.2957     0.7902    11.2766 </r>
       <r>    15.3592     0.7828    11.3265 </r>
       <r>    15.4226     0.7781    11.3760 </r>
       <r>    15.4861     0.7992    11.4253 </r>
       <r>    15.5495     0.8881    11.4818 </r>
       <r>    15.6130     0.9584    11.5401 </r>
       <r>    15.6765     1.2363    11.6072 </r>
       <r>    15.7399     1.2150    11.6868 </r>
       <r>    15.8034     0.9589    11.7552 </r>
       <r>    15.8668     0.8555    11.8121 </r>
       <r>    15.9303     0.8056    11.8657 </r>
       <r>    15.9937     0.7756    11.9158 </r>
       <r>    16.0572     0.7793    11.9649 </r>
       <r>    16.1207     0.7977    12.0149 </r>
       <r>    16.1841     0.8205    12.0662 </r>
       <r>    16.2476     0.8508    12.1192 </r>
       <r>    16.3110     0.8937    12.1745 </r>
       <r>    16.3745     0.9459    12.2328 </r>
       <r>    16.4380     1.0097    12.2948 </r>
       <r>    16.5014     1.2705    12.3649 </r>
       <r>    16.5649     1.5068    12.4539 </r>
       <r>    16.6283     1.7111    12.5559 </r>
       <r>    16.6918     1.8151    12.6670 </r>
       <r>    16.7552     1.8838    12.7854 </r>
       <r>    16.8187     1.8372    12.9038 </r>
       <r>    16.8822     1.7829    13.0187 </r>
       <r>    16.9456     1.7654    13.1296 </r>
       <r>    17.0091     1.7724    13.2417 </r>
       <r>    17.0725     1.7949    13.3549 </r>
       <r>    17.1360     1.9463    13.4790 </r>
       <r>    17.1994     1.8107    13.5980 </r>
       <r>    17.2629     1.8231    13.7132 </r>
       <r>    17.3264     2.0860    13.8324 </r>
       <r>    17.3898     1.8935    13.9540 </r>
       <r>    17.4533     1.9513    14.0766 </r>
       <r>    17.5167     1.9592    14.2004 </r>
       <r>    17.5802     2.0379    14.3265 </r>
       <r>    17.6436     2.3627    14.4641 </r>
       <r>    17.7071     2.2188    14.6109 </r>
       <r>    17.7706     2.1941    14.7510 </r>
       <r>    17.8340     2.1295    14.8919 </r>
       <r>    17.8975     2.2324    15.0328 </r>
       <r>    17.9609     2.2865    15.1766 </r>
       <r>    18.0244     2.3041    15.3221 </r>
       <r>    18.0879     2.3477    15.4743 </r>
       <r>    18.1513     2.2484    15.6226 </r>
       <r>    18.2148     2.3001    15.7668 </r>
       <r>    18.2782     2.2181    15.9216 </r>
       <r>    18.3417     2.1192    16.0613 </r>
       <r>    18.4051     2.0555    16.1893 </r>
       <r>    18.4686     1.9924    16.3214 </r>
       <r>    18.5321     1.8865    16.4429 </r>
       <r>    18.5955     1.8573    16.5617 </r>
       <r>    18.6590     1.8734    16.6807 </r>
       <r>    18.7224     1.8932    16.7999 </r>
       <r>    18.7859     2.6191    16.9301 </r>
       <r>    18.8493     2.5010    17.0949 </r>
       <r>    18.9128     2.3431    17.2529 </r>
       <r>    18.9763     2.8004    17.4134 </r>
       <r>    19.0397     4.5651    17.6469 </r>
       <r>    19.1032     2.7226    17.9052 </r>
       <r>    19.1666     2.4014    18.0665 </r>
       <r>    19.2301     1.9967    18.2050 </r>
       <r>    19.2935     1.8317    18.3260 </r>
       <r>    19.3570     1.7746    18.4398 </r>
       <r>    19.4205     1.6423    18.5535 </r>
       <r>    19.4839     1.5024    18.6531 </r>
       <r>    19.5474     1.3837    18.7447 </r>
       <r>    19.6108     1.3622    18.8313 </r>
       <r>    19.6743     1.4421    18.9205 </r>
       <r>    19.7377     1.4282    19.0115 </r>
       <r>    19.8012     1.4484    19.1027 </r>
       <r>    19.8647     1.5865    19.2045 </r>
       <r>    19.9281     1.3315    19.2966 </r>
       <r>    19.9916     1.2198    19.3779 </r>
       <r>    20.0550     1.0965    19.4513 </r>
       <r>    20.1185     0.9900    19.5174 </r>
       <r>    20.1820     1.2824    19.5813 </r>
       <r>    20.2454     0.6701    19.6379 </r>
       <r>    20.3089     0.5918    19.6777 </r>
       <r>    20.3723     0.5318    19.7132 </r>
       <r>    20.4358     0.4833    19.7454 </r>
       <r>    20.4992     0.4389    19.7746 </r>
       <r>    20.5627     0.3912    19.8023 </r>
       <r>    20.6262     0.3555    19.8259 </r>
       <r>    20.6896     0.3237    19.8475 </r>
       <r>    20.7531     0.2732    19.8663 </r>
       <r>    20.8165     0.2425    19.8826 </r>
       <r>    20.8800     0.2203    19.8972 </r>
       <r>    20.9434     0.2210    19.9110 </r>
       <r>    21.0069     0.2663    19.9293 </r>
       <r>    21.0704     0.2261    19.9460 </r>
       <r>    21.1338     0.1974    19.9594 </r>
       <r>    21.1973     0.1708    19.9711 </r>
       <r>    21.2607     0.1465    19.9811 </r>
       <r>    21.3242     0.1244    19.9897 </r>
       <r>    21.3876     0.1044    19.9969 </r>
       <r>    21.4511     0.0000    20.0000 </r>
       <r>    21.5146     0.0000    20.0000 </r>
       <r>    21.5780     0.0000    20.0000 </r>
       <r>    21.6415     0.0000    20.0000 </r>
       <r>    21.7049     0.0000    20.0000 </r>
       <r>    21.7684     0.0000    20.0000 </r>
       <r>    21.8319     0.0000    20.0000 </r>
       <r>    21.8953     0.0000    20.0000 </r>
       <r>    21.9588     0.0000    20.0000 </r>
       <r>    22.0222     0.0000    20.0000 </r>
       <r>    22.0857     0.0000    20.0000 </r>
       <r>    22.1491     0.0000    20.0000 </r>
       <r>    22.2126     0.0000    20.0000 </r>
       <r>    22.2761     0.0000    20.0000 </r>
       <r>    22.3395     0.0000    20.0000 </r>
       <r>    22.4030     0.0000    20.0000 </r>
       <r>    22.4664     0.0000    20.0000 </r>
       <r>    22.5299     0.0000    20.0000 </r>
       <r>    22.5933     0.0000    20.0000 </r>
       <r>    22.6568     0.0000    20.0000 </r>
       <r>    22.7203     0.0000    20.0000 </r>
       <r>    22.7837     0.0000    20.0000 </r>
       <r>    22.8472     0.0000    20.0000 </r>
       <r>    22.9106     0.0000    20.0000 </r>
       <r>    22.9741     0.0000    20.0000 </r>
       <r>    23.0375     0.0000    20.0000 </r>
       <r>    23.1010     0.0000    20.0000 </r>
       <r>    23.1645     0.0000    20.0000 </r>
       <r>    23.2279     0.0000    20.0000 </r>
       <r>    23.2914     0.0000    20.0000 </r>
       <r>    23.3548     0.0000    20.0000 </r>
       <r>    23.4183     0.0000    20.0000 </r>
      </set>
     </set>
    </array>
   </total>
  </dos>
 </calculation>
 <structure name="finalpos" >
  <crystal>
   <varray name="basis" >
    <v>       2.35764656       0.00000000       0.00000000 </v>
    <v>       0.00000000       2.35764656       0.00000000 </v>
    <v>       0.00000000       0.00000000       2.35764656 </v>
   </varray>
   <i name="volume">     13.10497200 </i>
   <varray name="rec_basis" >
    <v>       0.42415179       0.00000000       0.00000000 </v>
    <v>       0.00000000       0.42415179       0.00000000 </v>
    <v>       0.00000000       0.00000000       0.42415179 </v>
   </varray>
  </crystal>
  <varray name="positions" >
   <v>       0.00000000       0.00000000       0.00000000 </v>
   <v>       0.50000000       0.50000000       0.50000000 </v>
  </varray>
 </structure>
</modeling>
