 vasp.5.4.4.18Apr17-6-g9f103f2a35 (build Jan 03 2019 12:41:38) complex          
  
 executed on             LinuxIFC date 2019.07.01  15:43:44
 running on    4 total cores
 distrk:  each k-point on    1 cores,    4 groups
 distr:  one band on NCORES_PER_BAND=   1 cores,    1 groups
